<?xml version="1.0"?>
<VTKFile type="UnstructuredGrid"  version="0.1"  >
<UnstructuredGrid>
<Piece  NumberOfPoints="1890" NumberOfCells="3574">
<Points>
<DataArray  type="Float64"  NumberOfComponents="3"  format="ascii">1 0 0  0.9977668786231532 0.06679263374512155 0  0.9910774881547801 0.1332869553737788 0  0.9799617050365869 0.1991859851038361 0  0.9644691750543766 0.264195401871286 0  0.9446690916079188 0.3280248578395691 0  0.9206498866764288 0.3903892751634948 0  0.8925188358598812 0.4510101192161018 0  0.8604015792601394 0.5096166425919174 0  0.8244415603417603 0.5659470943305952 0  0.784799385278661 0.6197498889602449 0  0.7416521056479576 0.6707847301392235 0  0.6951924276746423 0.7188236838779293 0  0.6456278515588024 0.7636521965473321 0  0.5931797447293553 0.8050700531275629 0  0.5380823531633727 0.842892271416797 0  0.4805817551866838 0.8769499282066715 0  0.420934762428335 0.9070909137343407 0  0.3594077728375128 0.9331806110416025 0  0.2962755808856342 0.9551024972069124 0  0.2318201502675284 0.9727586637650372 0  0.1663293545831299 0.9860702539900286 0  0.1000956916240984 0.994977815088504 0  0.03341497700767464 0.9994415637302546 0  -0.03341497700767452 0.9994415637302546 0  -0.1000956916240983 0.994977815088504 0  -0.16632935458313 0.9860702539900286 0  -0.2318201502675281 0.9727586637650372 0  -0.2962755808856338 0.9551024972069124 0  -0.3594077728375129 0.9331806110416025 0  -0.4209347624283349 0.9070909137343408 0  -0.4805817551866837 0.8769499282066716 0  -0.5380823531633726 0.8428922714167971 0  -0.5931797447293552 0.805070053127563 0  -0.6456278515588024 0.7636521965473321 0  -0.6951924276746423 0.7188236838779293 0  -0.7416521056479576 0.6707847301392235 0  -0.784799385278661 0.6197498889602449 0  -0.8244415603417601 0.5659470943305954 0  -0.8604015792601392 0.5096166425919177 0  -0.8925188358598811 0.4510101192161021 0  -0.9206498866764287 0.3903892751634951 0  -0.9446690916079189 0.3280248578395689 0  -0.9644691750543765 0.2641954018712862 0  -0.9799617050365867 0.1991859851038363 0  -0.99107748815478 0.133286955373779 0  -0.9977668786231532 0.0667926337451217 0  -1 -3.216245299353273e-16 0  -0.9977668786231532 -0.06679263374512145 0  -0.9910774881547801 -0.1332869553737783 0  -0.9799617050365869 -0.1991859851038361 0  -0.9644691750543766 -0.264195401871286 0  -0.9446690916079188 -0.3280248578395691 0  -0.9206498866764288 -0.3903892751634949 0  -0.8925188358598815 -0.4510101192161015 0  -0.8604015792601394 -0.5096166425919175 0  -0.8244415603417605 -0.5659470943305949 0  -0.7847993852786611 -0.6197498889602446 0  -0.7416521056479575 -0.6707847301392236 0  -0.6951924276746424 -0.7188236838779292 0  -0.6456278515588025 -0.7636521965473319 0  -0.593179744729355 -0.8050700531275631 0  -0.5380823531633728 -0.842892271416797 0  -0.4805817551866835 -0.8769499282066716 0  -0.4209347624283351 -0.9070909137343407 0  -0.3594077728375134 -0.9331806110416024 0  -0.296275580885634 -0.9551024972069124 0  -0.2318201502675288 -0.9727586637650371 0  -0.1663293545831301 -0.9860702539900286 0  -0.1000956916240988 -0.994977815088504 0  -0.03341497700767455 -0.9994415637302546 0  0.03341497700767418 -0.9994415637302546 0  0.1000956916240984 -0.994977815088504 0  0.1663293545831297 -0.9860702539900286 0  0.2318201502675284 -0.9727586637650372 0  0.2962755808856337 -0.9551024972069125 0  0.3594077728375122 -0.9331806110416029 0  0.4209347624283348 -0.9070909137343408 0  0.4805817551866832 -0.8769499282066718 0  0.5380823531633725 -0.8428922714167971 0  0.5931797447293548 -0.8050700531275633 0  0.6456278515588023 -0.7636521965473321 0  0.6951924276746418 -0.7188236838779297 0  0.7416521056479575 -0.6707847301392235 0  0.7847993852786612 -0.6197498889602446 0  0.8244415603417603 -0.5659470943305952 0  0.8604015792601392 -0.5096166425919179 0  0.8925188358598808 -0.4510101192161026 0  0.9206498866764287 -0.3903892751634952 0  0.9446690916079188 -0.328024857839569 0  0.9644691750543765 -0.2641954018712863 0  0.9799617050365869 -0.199185985103836 0  0.99107748815478 -0.1332869553737791 0  0.9977668786231532 -0.06679263374512227 0  0.5766044443118978 0.06427876096865393 0  0.6 0 0  0.5766044443118978 -0.06427876096865397 0  0.517364817766693 -0.09848077530122082 0  0.45 -0.08660254037844384 0  0.4060307379214091 -0.03420201433256687 0  0.4060307379214091 0.03420201433256689 0  0.45 0.08660254037844388 0  0.5173648177666931 0.0984807753012208 0  -0.2965686451888956 -3.216245299353273e-16 0  0.02995799338450739 0.4463820650390996 0  0.02995799338450775 -0.4463820650390995 0  -0.3955719483658615 0.4150379846043291 0  -0.4169105514339966 -0.4032046590493156 0  -0.6262911543602625 0.1406750128378851 0  0.4099697941225568 0.4649562806856727 0  0.4099697941225571 -0.4649562806856725 0  0.05127126517818126 0.08817401780249684 0  -0.1831682142260297 -0.6686721086721615 0  -0.1831682142260294 0.6686721086721619 0  -0.6520464330424147 -0.1814832365373373 0  0.2091634468672813 0.6766366337832459 0  0.1883365569596445 -0.6875396105945327 0  0.2159040325791659 -0.2383848214817743 0  -0.1744543149380852 0.2484563274625736 0  -0.06716122455575962 -0.1748068953293204 0  0.2513036159616241 0.2568747514607447 0  0.6477088057990819 -0.3356515765545967 0  0.6477088057990816 0.3356515765545969 0  -0.6429348001755962 0.3888615828205575 0  -0.4176911395802332 -0.639529979133491 0  -0.6487907438517166 -0.4141725603623674 0  -0.4382859878713386 0.638471665172117 0  -0.1883060146004528 -0.3712832336183189 0  -0.4093410988944064 0.1924263534676403 0  0.7784262897673441 0.1313041761919452 0  0.7692266286696862 -0.1588101168391893 0  -0.3273037620396328 -0.2103878546156154 0  -0.1798454764806241 0.458542771899162 0  0.4017553023960708 -0.6784121172515977 0  -0.7833260349743965 -0.008879310202590557 0  -0.4794205971237819 -0.08072648637784163 0  0.4174224539707952 0.6731117436251652 0  0.01086072875173043 0.7779172259216657 0  0.5993482410529842 0.529941331081667 0  0.5800727149699484 -0.5610028828936883 0  -0.002913066865704084 -0.7863475463243047 0  0.4644692980420977 0.281953550413786 0  0.4644692980420981 -0.281953550413786 0  0.2204900511885566 0.4449044634307799 0  0.2180189937406393 -0.4954600835645215 0  0.2060327886352148 -0.03858259979572255 0  -0.7808481637664745 0.2422213783127347 0  0.06990549121986947 0.2690208389553115 0  -0.1124194025531066 0.00373323440863213 0  -0.2838372182411008 -0.5216724848805774 0  0.03130371177689495 -0.6180840640285581 0  -0.7762218745645899 -0.2989562490519654 0  0.05214597457400483 0.613977754767665 0  -0.4956543915012957 -0.251170934148539 0  -0.5275381827985767 -0.5210032025475994 0  -0.5301696116286927 0.5051064981533095 0  -0.16809888692682 -0.8270183856644552 0  -0.3240121076586466 0.7657967722683376 0  -0.1438288839385778 0.8257307941019953 0  -0.2998557134907758 0.5617360107302967 0  0.1684367173033988 0.8286804545679113 0  -0.6250110225296729 -0.01789111552180164 0  -0.3137113036339798 -0.7609856814941814 0  -0.1170075000122383 -0.518790272865666 0  0.05108989091758273 -0.06990257622780319 0  -0.5427150590508653 0.270931066435428 0  0.1429967624415053 -0.8342737229435346 0  0.2997239097253987 -0.7923562376371267 0  0.2676893696803808 0.1031671400466477 0  0.3261287713905652 -0.3403712992466087 0  0.7950089908879098 0.2858943947941835 0  0.3151824699376609 0.7865115564528017 0  0.3115634426834656 0.5726907027982669 0  0.704039443019545 -0.4753841151972395 0  0.7470219429290336 -0.01290298646666185 0  -0.8321235529347469 -0.1551998530807213 0  0.05709269783870959 -0.2835250962999872 0  -0.2021447182543711 -0.1140175740005167 0  -0.05854661192244001 0.3332686099592011 0  -0.4944752806394075 0.06870205217856792 0  0.6465785626300955 0.1909460270059954 0  0.6150172073263744 -0.1992156468339642 0  -0.08321382237958147 0.5651617303365446 0  -0.6720985235143602 0.5299695767353035 0  0.3081627102340266 -0.1336818188805801 0  0.7954182263431147 -0.306979485853048 0  -0.0801862748968569 0.1421281857867356 0  -0.2704290205461716 0.3511058548763765 0  -0.2733876063765904 0.1428439818287992 0  -0.6630142665634642 -0.5525422555121322 0  0.7250705628492369 0.4580712316052048 0  0.5291222693526491 0.4008241947929737 0  0.543461903937986 -0.42718897847992 0  -0.5796080761878384 0.6375025331582558 0  -0.5686737890628571 -0.6510435601866913 0  0.1471374478051752 -0.382217095965624 0  0.367570301927055 0.1909193223550535 0  0.8716954478736112 0.02914395839180125 0  0.3487459623057126 0.3471068582357988 0  0.1543099947611301 0.1689404724154097 0  -0.07297109638128209 -0.3068109338541753 0  0.2917188534562402 -0.6051822784871949 0  -0.2024804285799746 -0.2430406644266693 0  -0.7781944430042567 0.3778986247265116 0  -0.8494742869240901 0.1173360134018405 0  -0.7720870174071235 -0.4231153023082534 0  -0.449110317890587 -0.7582468751604555 0  0.5545923664877855 0.6602415200552888 0  0.5344562863167422 -0.6858381270857777 0  0.4766344790775262 0.566780609122759 0  -0.445772660902635 0.7601337067632379 0  -0.6616262409933745 0.2552874992358464 0  0.1653545872376546 0.5583524484327292 0  -0.4028773004059317 -0.5214149604035093 0  -0.2990776467406227 -0.6432205051811133 0  0.1120905589734103 -0.1750840530986415 0  0.06398953478431954 0.8829484618446889 0  -0.5251433924072202 0.3874134656159851 0  -0.6099143365137073 -0.2972611803339155 0  -0.04678747567896177 0.6762313351705379 0  -0.533024901227188 -0.4050045909030676 0  0.1246725721343765 0.3745355098341986 0  -0.3000083100373507 -0.4058635916290634 0  -0.06655528087218812 -0.8836517798731542 0  -0.4088769106504622 0.5282941447433156 0  -0.7345489526308654 0.09712579222418664 0  0.1081465349890011 -0.5316255335782825 0  0.8804353520695445 -0.1485109638682795 0  -0.3713419913383989 0.08543731094255294 0  -0.43252237558797 0.3055918258709063 0  0.1125429094389743 0.7322321616258178 0  -0.8927041854393205 -0.02984635711944513 0  -0.06589562952638969 -0.6859291199262957 0  -0.7331201394770802 -0.1069200385835311 0  -0.08867729710384351 -0.414111852980487 0  -0.0447872543388
[...]
<PointData  Vectors="f_25"> 
<DataArray  type="Float64"  Name="f_25"  NumberOfComponents="3" format="ascii">0.0000000000000000e+00 0.0000000000000000e+00 0.0000000000000000e+00  0.0000000000000000e+00 0.0000000000000000e+00 0.0000000000000000e+00  0.0000000000000000e+00 0.0000000000000000e+00 0.0000000000000000e+00  0.0000000000000000e+00 0.0000000000000000e+00 0.0000000000000000e+00  0.0000000000000000e+00 0.0000000000000000e+00 0.0000000000000000e+00  0.0000000000000000e+00 0.0000000000000000e+00 0.0000000000000000e+00  0.0000000000000000e+00 0.0000000000000000e+00 0.0000000000000000e+00  0.0000000000000000e+00 0.0000000000000000e+00 0.0000000000000000e+00  0.0000000000000000e+00 0.0000000000000000e+00 0.0000000000000000e+00  0.0000000000000000e+00 0.0000000000000000e+00 0.0000000000000000e+00  0.0000000000000000e+00 0.0000000000000000e+00 0.0000000000000000e+00  0.0000000000000000e+00 0.0000000000000000e+00 0.0000000000000000e+00  0.0000000000000000e+00 0.0000000000000000e+00 0.0000000000000000e+00  0.0000000000000000e+00 0.0000000000000000e+00 0.0000000000000000e+00  0.0000000000000000e+00 0.0000000000000000e+00 0.0000000000000000e+00  0.0000000000000000e+00 0.0000000000000000e+00 0.0000000000000000e+00  0.0000000000000000e+00 0.0000000000000000e+00 0.0000000000000000e+00  0.0000000000000000e+00 0.0000000000000000e+00 0.0000000000000000e+00  0.0000000000000000e+00 0.0000000000000000e+00 0.0000000000000000e+00  0.0000000000000000e+00 0.0000000000000000e+00 0.0000000000000000e+00  0.0000000000000000e+00 0.0000000000000000e+00 0.0000000000000000e+00  0.0000000000000000e+00 0.0000000000000000e+00 0.0000000000000000e+00  0.0000000000000000e+00 0.0000000000000000e+00 0.0000000000000000e+00  0.0000000000000000e+00 0.0000000000000000e+00 0.0000000000000000e+00  0.0000000000000000e+00 0.0000000000000000e+00 0.0000000000000000e+00  0.0000000000000000e+00 0.0000000000000000e+00 0.0000000000000000e+00  0.0000000000000000e+00 0.0000000000000000e+00 0.0000000000000000e+00  0.0000000000000000e+00 0.0000000000000000e+00 0.0000000000000000e+00  0.0000000000000000e+00 0.0000000000000000e+00 0.0000000000000000e+00  0.0000000000000000e+00 0.0000000000000000e+00 0.0000000000000000e+00  0.0000000000000000e+00 0.0000000000000000e+00 0.0000000000000000e+00  0.0000000000000000e+00 0.0000000000000000e+00 0.0000000000000000e+00  0.0000000000000000e+00 0.0000000000000000e+00 0.0000000000000000e+00  0.0000000000000000e+00 0.0000000000000000e+00 0.0000000000000000e+00  0.0000000000000000e+00 0.0000000000000000e+00 0.0000000000000000e+00  0.0000000000000000e+00 0.0000000000000000e+00 0.0000000000000000e+00  0.0000000000000000e+00 0.0000000000000000e+00 0.0000000000000000e+00  0.0000000000000000e+00 0.0000000000000000e+00 0.0000000000000000e+00  0.0000000000000000e+00 0.0000000000000000e+00 0.0000000000000000e+00  0.0000000000000000e+00 0.0000000000000000e+00 0.0000000000000000e+00  0.0000000000000000e+00 0.0000000000000000e+00 0.0000000000000000e+00  0.0000000000000000e+00 0.0000000000000000e+00 0.0000000000000000e+00  0.0000000000000000e+00 0.0000000000000000e+00 0.0000000000000000e+00  0.0000000000000000e+00 0.0000000000000000e+00 0.0000000000000000e+00  0.0000000000000000e+00 0.0000000000000000e+00 0.0000000000000000e+00  0.0000000000000000e+00 0.0000000000000000e+00 0.0000000000000000e+00  0.0000000000000000e+00 0.0000000000000000e+00 0.0000000000000000e+00  0.0000000000000000e+00 0.0000000000000000e+00 0.0000000000000000e+00  0.0000000000000000e+00 0.0000000000000000e+00 0.0000000000000000e+00  0.0000000000000000e+00 0.0000000000000000e+00 0.0000000000000000e+00  0.0000000000000000e+00 0.0000000000000000e+00 0.0000000000000000e+00  0.0000000000000000e+00 0.0000000000000000e+00 0.0000000000000000e+00  0.0000000000000000e+00 0.0000000000000000e+00 0.0000000000000000e+00  0.0000000000000000e+00 0.0000000000000000e+00 0.0000000000000000e+00  0.0000000000000000e+00 0.0000000000000000e+00 0.0000000000000000e+00  0.0000000000000000e+00 0.0000000000000000e+00 0.0000000000000000e+00  0.0000000000000000e+00 0.0000000000000000e+00 0.0000000000000000e+00  0.0000000000000000e+00 0.0000000000000000e+00 0.0000000000000000e+00  0.0000000000000000e+00 0.0000000000000000e+00 0.0000000000000000e+00  0.0000000000000000e+00 0.0000000000000000e+00 0.0000000000000000e+00  0.0000000000000000e+00 0.0000000000000000e+00 0.0000000000000000e+00  0.0000000000000000e+00 0.0000000000000000e+00 0.0000000000000000e+00  0.0000000000000000e+00 0.0000000000000000e+00 0.0000000000000000e+00  0.0000000000000000e+00 0.0000000000000000e+00 0.0000000000000000e+00  0.0000000000000000e+00 0.0000000000000000e+00 0.0000000000000000e+00  0.0000000000000000e+00 0.0000000000000000e+00 0.0000000000000000e+00  0.0000000000000000e+00 0.0000000000000000e+00 0.0000000000000000e+00  0.0000000000000000e+00 0.0000000000000000e+00 0.0000000000000000e+00  0.0000000000000000e+00 0.0000000000000000e+00 0.0000000000000000e+00  0.0000000000000000e+00 0.0000000000000000e+00 0.0000000000000000e+00  0.0000000000000000e+00 0.0000000000000000e+00 0.0000000000000000e+00  0.0000000000000000e+00 0.0000000000000000e+00 0.0000000000000000e+00  0.0000000000000000e+00 0.0000000000000000e+00 0.0000000000000000e+00  0.0000000000000000e+00 0.0000000000000000e+00 0.0000000000000000e+00  0.0000000000000000e+00 0.0000000000000000e+00 0.0000000000000000e+00  0.0000000000000000e+00 0.0000000000000000e+00 0.0000000000000000e+00  0.0000000000000000e+00 0.0000000000000000e+00 0.0000000000000000e+00  0.0000000000000000e+00 0.0000000000000000e+00 0.0000000000000000e+00  0.0000000000000000e+00 0.0000000000000000e+00 0.0000000000000000e+00  0.0000000000000000e+00 0.0000000000000000e+00 0.0000000000000000e+00  0.0000000000000000e+00 0.0000000000000000e+00 0.0000000000000000e+00  0.0000000000000000e+00 0.0000000000000000e+00 0.0000000000000000e+00  0.0000000000000000e+00 0.0000000000000000e+00 0.0000000000000000e+00  0.0000000000000000e+00 0.0000000000000000e+00 0.0000000000000000e+00  0.0000000000000000e+00 0.0000000000000000e+00 0.0000000000000000e+00  0.0000000000000000e+00 0.0000000000000000e+00 0.0000000000000000e+00  0.0000000000000000e+00 0.0000000000000000e+00 0.0000000000000000e+00  0.0000000000000000e+00 0.0000000000000000e+00 0.0000000000000000e+00  0.0000000000000000e+00 0.0000000000000000e+00 0.0000000000000000e+00  0.0000000000000000e+00 0.0000000000000000e+00 0.0000000000000000e+00  0.0000000000000000e+00 0.0000000000000000e+00 0.0000000000000000e+00  0.0000000000000000e+00 0.0000000000000000e+00 0.0000000000000000e+00  0.0000000000000000e+00 0.0000000000000000e+00 0.0000000000000000e+00  0.0000000000000000e+00 0.0000000000000000e+00 0.0000000000000000e+00  0.0000000000000000e+00 0.0000000000000000e+00 0.0000000000000000e+00  0.0000000000000000e+00 0.0000000000000000e+00 0.0000000000000000e+00  0.0000000000000000e+00 0.0000000000000000e+00 0.0000000000000000e+00  0.0000000000000000e+00 0.0000000000000000e+00 0.0000000000000000e+00  0.0000000000000000e+00 0.0000000000000000e+00 0.0000000000000000e+00  0.0000000000000000e+00 0.0000000000000000e+00 0.0000000000000000e+00  0.0000000000000000e+00 0.0000000000000000e+00 0.0000000000000000e+00  0.0000000000000000e+00 0.0000000000000000e+00 0.0000000000000000e+00  0.0000000000000000e+00 0.0000000000000000e+00 0.0000000000000000e+00  -1.5191531267843410e-05 -6.8445174251653765e-02 0.0000000000000000e+00  -9.1234366974633399e-02 1.8342343658551096e-02 0.0000000000000000e+00  9.1303658098561141e-02 1.8277874952920117e-02 0.0000000000000000e+00  -7.9004163367000016e-02 -7.1062328018805840e-02 0.0000000000000000e+00  7.5924939486013476e-02 -7.4489476361232876e-02 0.0000000000000000e+00  -2.3396704111477731e-02 -1.0172767460006714e-01 0.0000000000000000e+00  -6.3711248851114191e-02 5.6627475589027289e-02 0.0000000000000000e+00  6.3742761979868764e-02 5.6759799925346473e-02 0.0000000000000000e+00  -1.8032221667833984e-02 5.0114801978732790e-02 0.0000000000000000e+00  8.8873766560099002e-02 -2.1665436129039754e-02 0.0000000000000000e+00  -8.8881050366899028e-02 -2.1645481210022261e-02 0.0000000000000000e+00  2.7276552320460713e-02 -9.6103708915958222e-02 0.0000000000000000e+00  -7.7859778921776507e-02 2.7046470655578369e-02 0.0000000000000000e+00  7.8371972736912376e-02 2.4354577213114594e-02 0.0000000000000000e+00  3.3920028612002724e-02 6.8509411739276480e-02 0.0000000000000000e+00  -6.3851845664142551e-02 -3.0464505051889419e-02 0.0000000000000000e+00  4.3836379014399469e-02 6.3492471143726482e-03 0.0000000000000000e+00  -3.4647648323998428e-02 6.8059326036463363e-02 0.0000000000000000e+00  4.8877874079663333e-02 6.4317897769858301e-02 0.0000000000000000e+00  -4.8937380717753214e-02 6.4201327288904930e-02 0.0000000000000000e+00  -4.4431033659019702e-02 -7.2305180092615662e-02 0.0000000000000000e+00  6.7367564226436999e-02 -4.2703486863375294e-02 0.0000000000000000e+00  4.3655114165007849e-02 -6.7385028076968639e-02 0.0000000000000000e+00  -6.4241544142124615e-02 -4.2950564887663689e-02 0.0000000000000000e+00  8.6734822296512887e-02 -3.3979082629929887e-02 0.0000000000000000e+00  -4.5516288002205370e-02 -9.0144394942957146e-02 0.0000000000000000e+00  -2.6183611507352614e-02 8.8332743360312702e-02 0.0000000000000000e+00  3.0769520716173549e-02 8.5327934593861454e-02 0.0000000000000000e+00  5.2882892501372229e-02 -7.3263705039552068e-02 0.0000000000000000e+00  -9.6450257862255986e-02 -3.0174027526174919e-02 0.0000000000000000e+00  5.4810031538024662e-02 3.3185721467315792e-02 0.0000000000000000e+00  8.9143526404956617e-04 -7.7576948839177914e-02 0.0000000000000000e+00  1.8368319987714068e-02 -1.0364704897741810e-01 0.0000000000000000e+00  -5.3384450609416302e-02 3.3666236888623774e-02 0.0000000000000000e+00  -7.1387548205985696e-02 2.6129695742358851e-03 0.0000000000000000e+00  -4.3446308218618203e-02 4.4608305537612185e-02 0.0000000000000000e+00  4.3222295893327711e-02 4.1697625318870744e-02 0.0000000000000000e+00  6.9537850095006307e-02 1.2122390292996445e-03 0.0000000000000000e+00  -4.1265427117732026e-02 5.5180660026671657e-02 0.0000000000000000e+00  4.1154835179683720e-02 5.5502388781222961e-02 0.0000000000000000e+00  -7.5977683169832902e-02 4.9336952694058744e-02 0.0000000000000000e+00  8.1548179994077194e-02 4.4666306584854307e-02 0.0000000000000000e+00  1.9866986585982344e-03 9.0340102129722169e-02 0.0000000000000000e+00  -2.0140933632155050e-02 -6.4391334306994050e-02 0.0000000000000000e+00  -5.6506039771321952e-02 4.1058743003037253e-02 0.0000000000000000e+00  -1.0251831977042551e-03 -6.3783506513644221e-03 0.0000000000000000e+00  9.2870670815492329e-02 -4.6221097898680036e-02 0.0000000000000000e+00  9.5887896525782154e-02 9.9947570237997226e-03 0.0000000000000000e+00  2.2778433932541305e-02 -5.8646805410543096e-02 0.0000000000000000e+00  -9.5165552149785809e-02 1.3412144904540034e-02 0.0000000000000000e+00  5.0464694572977281e-02 -9.5460130348011346e-02 0.0000000000000000e+00  6.1241647169654294e-02 -6.0611228509333599e-02 0.0000000000000000e+00  -6.1601994362252270e-02 -6.3172543166878481e-02 0.0000000000000000e+00  5.4002741174832801e-02 -1.0284492305819008e-02 0.0000000000000000e+00  -5.5561724049514073e-02 -2.2800777865238771e-02 0.0000000000000000e+00  -5.5832525216282090e-02 -8.9673073714383027e-03 0.0000000000000000e+00  -9.0226654532661571e-02 -4.4769536853727428e-02 0.0000000000000000e+00  -5.0219643655336758e-02 1.1009938917520029e-02 0.0000000000000000e+00  3.1048196346808972e-03 -1.0605954054769874e-01 0.0000000000000000e+00  5.8082218025203955e-02 -2.3158969425592715e-02 0.0000000000000000e+00  1.0040582804142441e-01 -1.5702295845995175e-02 0.0000000000000000e+00  1.4094204366037867e-02 5.0820102503407662e-02 0.0000000000000000e+00  -4.8872207364312546e-02 -9.4789344759609581e-02 0.0000000000000000e+00  5.0558991549273187e-02 9.4601997406844971e-03 0.0000000000000000e+00  4.6315612564940496e-02 1.8229168427298981e-02 0.0000000000000000e+00  3.5301248929172729e-04 8.8001494976204991e-02 0.0000000000000000e+00  5.0082515357646532e-02 6.2167640610789367e-02 0.0000000000000000e+00  -2.9616987735775160e-02 5.9690586314318041e-02 0.0000000000000000e+00  -4.5774116630818498e-02 1.9025692386328882e-02 0.0000000000000000e+00  -7.4885516708527264e-02 4.4353151266774679e-02 0.0000000000000000e+00  3.2487614408693098e-02 4.1545743688766193e-02 0.0000000000000000e+00  3.6452999547441347e-03 1.0250201236626585e-01 0.0000000000000000e+00  1.0762375157691382e-02 -5.7347801425311977e-02 0.0000000000000000e+00  6.0872890357518604e-02 3.6550318848862964e-02 0.0000000000000000e+00  3.0935611133068946e-02 -3.8802807035933591e-02 0.0000000000000000e+00  -7.8489387281436077e-02 2.1832927657895163e-03 0.0000000000000000e+00  -1.5344140786105367e-02 -1.0527324320079393e-01 0.0000000000000000e+00  -4.8604828105293214e-02 7.3054930787962893e-02 0.0000000000000000e+00  4.9652071169186594e-02 6.5386028080271233e-02 0.0000000000000000e+00  -1.0056862936957116e-01 -8.8093261056623774e-03 0.0000000000000000e+00  -3.3849990510789726e-02 -4.2535672752695944e-02 0.0000000000000000e+00  -2.1364066829209633e-03 7.8827927920874508e-02 0.0000000000000000e+00  2.8876463332795567e-02 5.5714890863997238e-02 0.0000000000000000e+00  -3.6254687105293719e-02 3.0681966909129020e-03 0.0000000000000000e+00  -8.1360653863009724e-02 -5.4451515344627326e-02 0.0000000000000000e+00  -3.8100477393640642e-02 -6.0799080680961334e-02 0.0000000000000000e+00  3.3376062047554465e-02 -3.9684911099357199e-02 0.0000000000000000e+00  -3.0620518277125506e-02 4.1324971436822115e-02 0.0000000000000000e+00  -5.4810892357452845e-02 5.9682639013956817e-02 0.0000000000000000e+00  5.4405147727332327e-02 5.8175877240385566e-02 0.0000000000000000e+00  -3.8626639599861262e-02 -3.4727145090231976e-02 0.0000000000000000e+00  3.8528267836176980e-02 -3.3276315468784796e-02 0.0000000000000000e+00  7.2700432869411913e-02 4.5599301842583762e-02 0.0000000000000000e+00  -8.2692378973617635e-03 6.0126854576756698e-02 0.0000000000000000e+00  -3.5121098304932473e-03 7.2303646761730386e-02 0.0000000000000000e+00  -5.0511051273034388e-02 6.1669880946610245e-02 0.0000000000000000e+00  -2.5641742441328722e-02 6.9418235191207739e-02 0.0000000000000000e+00  7.3964944875770960e-02 -9.8517586251881941e-04 0.0000000000000000e+00  7.5802032549592932e-02 3.9930837304821408e-02 0.0000000000000000e+00  6.2698197003619158e-02 -3.8993766525184978e-02 0.0000000000000000e+00  -2.2701967159322985e-02 -4.6439491966400431e-02 0.0000000000000000e+00  -7.5159252696740198e-03 -5.4119932138192689e-02 0.0000000000000000e+00  2.2309696280542468e-02 -4.0469646699480132e-02 0.0000000000000000e+00  3.8387134368292122e-02 -2.2416592158854370e-02 0.0000000000000000e+00  -3.4365502243373702e-02 2.8231626671039640e-02 0.0000000000000000e+00  3.3485883408776493e-02 2.5762859972079468e-02 0.0000000000000000e+00  -5.6640517613948782e-02 4.6422057045499496e-02 0.0000000000000000e+00  -3.8497427862571071e-02 -2.2256828645723606e-02 0.0000000000000000e+00  -3.4461457650708342e-02 -8.7757959568871155e-02 0.0000000000000000e+00  -8.8791554181790841e-02 3.3185253058422536e-02 0.0000000000000000e+00  8.0104071870664928e-02 -5.9206087630168359e-02 0.0000000000000000e+00  8.2659344438092405e-02 -3.6259506681010321e-02 0.0000000000000000e+00  3.1373124169334472e-02 5.9971270757453572e-02 0.0000000000000000e+00  -3.9839368213837351e-02 3.3227563025379778e-03 0.0000000000000000e+00  -6.1697368106748487e-02 -8.1140843947468497e-02 0.0000000000000000e+00  4.4243876098099620e-02 -8.8788015395875386e-02 0.0000000000000000e+00  -9.1603250208917353e-02 -2.9708315640072196e-03 0.0000000000000000e+00  6.1404374904170438e-02 -7.8586765822392907e-02 0.0000000000000000e+00  -7.3262241589727481e-02 4.2655838125463100e-02 0.0000000000000000e+00  8.6394794341544068e-02 -5.7591287178073318e-02 0.0000000000000000e+00  4.0473026397347983e-02 -2.6572550712383892e-03 0.0000000000000000e+00  -7.9063150758043918e-02 -5.8633107567063115e-02 0.0000000000000000e+00  -1.1696845225244853e-02 -8.7320957714021194e-02 0.0000000000000000e+00  9.2747695858575910e-02 2.7162981183268365e-02 0.0000000000000000e+00  1.3275279848423575e-02 5.8129098715781403e-02 0.0000000000000000e+00  -2.1937108494775415e-02 -8.6542407922100731e-02 0.0000000000000000e+00  -6.3941496894448488e-02 -8.5599214670936202e-02 0.0000000000000000e+00  -7.6918782925662399e-02 1.4148491430199812e-02 0.0000000000000000e+00  1.4147244688409357e-03 -4.1931001149859773e-02 0.0000000000000000e+00  9.0153116214723689e-02 -5.6045708507883873e-03 0.0000000000000000e+00  1.2877183070720669e-02 -8.7156234513196582e-02 0.0000000000000000e+00  9.2248043249542486e-02 -8.5073948232803655e-03 0.0000000000000000e+00  -4.4664900277359032e-02 -1.8002666711387451e-03 0.0000000000000000e+00  2.1286259317970391e-02 6.1669164483226985e-02 0.0000000000000000e+00  3.8670848825800769e-02 2.3607128494952971e-03 0.0000000000000000e+00  7.6859690639217410e-02 1.1978571349065490e-02 0.0000000000000000e+00  3.7626202452814943e-02 8.7728064409089909e-02 0.0000000000000000e+00  -7.3374021119472724e-03 8.0495719853875186e-02 0.0000000000000000e+00  2.9165231090345412e-02 1.7410152446623844e-02 0.0000000000000000e+00  6.6083838977216716e-02 4.6816861375484901e-02 0.0000000000000000e+00  -2.8850716942479201e-02 1.7219002898057910e-02 0.0000000000000000e+00  1.3082911002271626e-03 9.5106991620544631e-02 0.0000000000000000e+00  -1.6063967727121757e-02 -3.9835946370239066e-02 0.0000000000000000e+00  -9.0347071059469305e-02 -5.3460772718194528e-02 0.0000000000000000e+00  -2.7103328316922380e-02 9.4770909523276256e-02 0.0000000000000000e+00  -1.1921475154699507e-02 5.8152959349775067e-02 0.0000000000000000e+00  6.5431741391134571e-02 -8.1689570932372765e-02 0.0000000000000000e+00  2.8137099510320208e-02 -7.1006081026312909e-02 0.0000000000000000e+00  -6.1328228961076495e-02 -6.8372155357798531e-02 0.0000000000000000e+00  -9.8186043396461906e-02 -2.8075045690364227e-02 0.0000000000000000e+00  -9.6867111071913578e-02 -5.9156540110505071e-03 0.0000000000000000e+00  -8.4244847051259855e-02 -2.7311492697670595e-02 0.0000000000000000e+00  4.3928960318781698e-02 7.4140105542710111e-02 0.0000000000000000e+00  -6.6498994543470261e-02 3.2638552191521723e-02 0.0000000000000000e+00  -3.4184822278880596e-02 -1.0286848029488896e-01 0.0000000000000000e+00  -2.3814145891679059e-02 2.7673168485061808e-02 0.0000000000000000e+00  -8.0374897080116595e-02 -3.2858389008683389e-02 0.0000000000000000e+00  -4.2182266539246553e-02 4.8051030736015146e-02 0.0000000000000000e+00  -4.6745372808368844e-02 5.4957709292105042e-02 0.0000000000000000e+00  1.3671922982920205e-02 8.0201373516629190e-02 0.0000000000000000e+00  -3.5159487886793378e-02 -9.3721672524576631e-03 0.0000000000000000e+00  4.0376969734224180e-02 -9.3671166966254674e-02 0.0000000000000000e+00  3.6600670963638743e-03 -9.3001178285172043e-02 0.0000000000000000e+00  2.0743535454765340e-02 -1.0616130517589266e-01 0.0000000000000000e+00  2.3463574088952503e-02 2.6045376786510116e-02 0.0000000000000000e+00  7.3165829110586417e-02 -5.9870220802238930e-02 0.0000000000000000e+00  -4.1608630815649549e-02 3.2379611629223676e-02 0.0000000000000000e+00  1.9832051268905675e-02 3.6473118788046495e-02 0.0000000000000000e+00  5.7219499596717960e-02 5.2123951952341180e-02 0.0000000000000000e+00  3.2546641723850918e-02 -1.1072607001738666e-02 0.0000000000000000e+00  8.5922871779134075e-02 3.3825785289027313e-02 0.0000000000000000e+00  6.8772180389630622e-02 5.5771095322793680e-02 0.0000000000000000e+00  -4.0484803518424775e-02 -3.0477564298548785e-02 0.0000000000000000e+00  3.1683232623615380e-02 8.9265791836653282e-03 0.0000000000000000e+00  -5.9504217916703961e-02 1.8789809430705851e-04 0.0000000000000000e+00  -1.9485112904230811e-02 3.5568658417694285e-02 0.0000000000000000e+00  2.2525071643871221e-02 3.6627359792997867e-02 0.0000000000000000e+00  1.0973771846002746e-02 -3.7684302264014514e-02 0.0000000000000000e+00  -5.1158428392668882e-02 6.0199655370764972e-02 0