<?xml version="1.0"?>
<VTKFile type="UnstructuredGrid"  version="0.1"  >
<UnstructuredGrid>
<Piece  NumberOfPoints="1890" NumberOfCells="3574">
<Points>
<DataArray  type="Float64"  NumberOfComponents="3"  format="ascii">1 0 0  0.9977668786231532 0.06679263374512155 0  0.9910774881547801 0.1332869553737788 0  0.9799617050365869 0.1991859851038361 0  0.9644691750543766 0.264195401871286 0  0.9446690916079188 0.3280248578395691 0  0.9206498866764288 0.3903892751634948 0  0.8925188358598812 0.4510101192161018 0  0.8604015792601394 0.5096166425919174 0  0.8244415603417603 0.5659470943305952 0  0.784799385278661 0.6197498889602449 0  0.7416521056479576 0.6707847301392235 0  0.6951924276746423 0.7188236838779293 0  0.6456278515588024 0.7636521965473321 0  0.5931797447293553 0.8050700531275629 0  0.5380823531633727 0.842892271416797 0  0.4805817551866838 0.8769499282066715 0  0.420934762428335 0.9070909137343407 0  0.3594077728375128 0.9331806110416025 0  0.2962755808856342 0.9551024972069124 0  0.2318201502675284 0.9727586637650372 0  0.1663293545831299 0.9860702539900286 0  0.1000956916240984 0.994977815088504 0  0.03341497700767464 0.9994415637302546 0  -0.03341497700767452 0.9994415637302546 0  -0.1000956916240983 0.994977815088504 0  -0.16632935458313 0.9860702539900286 0  -0.2318201502675281 0.9727586637650372 0  -0.2962755808856338 0.9551024972069124 0  -0.3594077728375129 0.9331806110416025 0  -0.4209347624283349 0.9070909137343408 0  -0.4805817551866837 0.8769499282066716 0  -0.5380823531633726 0.8428922714167971 0  -0.5931797447293552 0.805070053127563 0  -0.6456278515588024 0.7636521965473321 0  -0.6951924276746423 0.7188236838779293 0  -0.7416521056479576 0.6707847301392235 0  -0.784799385278661 0.6197498889602449 0  -0.8244415603417601 0.5659470943305954 0  -0.8604015792601392 0.5096166425919177 0  -0.8925188358598811 0.4510101192161021 0  -0.9206498866764287 0.3903892751634951 0  -0.9446690916079189 0.3280248578395689 0  -0.9644691750543765 0.2641954018712862 0  -0.9799617050365867 0.1991859851038363 0  -0.99107748815478 0.133286955373779 0  -0.9977668786231532 0.0667926337451217 0  -1 -3.216245299353273e-16 0  -0.9977668786231532 -0.06679263374512145 0  -0.9910774881547801 -0.1332869553737783 0  -0.9799617050365869 -0.1991859851038361 0  -0.9644691750543766 -0.264195401871286 0  -0.9446690916079188 -0.3280248578395691 0  -0.9206498866764288 -0.3903892751634949 0  -0.8925188358598815 -0.4510101192161015 0  -0.8604015792601394 -0.5096166425919175 0  -0.8244415603417605 -0.5659470943305949 0  -0.7847993852786611 -0.6197498889602446 0  -0.7416521056479575 -0.6707847301392236 0  -0.6951924276746424 -0.7188236838779292 0  -0.6456278515588025 -0.7636521965473319 0  -0.593179744729355 -0.8050700531275631 0  -0.5380823531633728 -0.842892271416797 0  -0.4805817551866835 -0.8769499282066716 0  -0.4209347624283351 -0.9070909137343407 0  -0.3594077728375134 -0.9331806110416024 0  -0.296275580885634 -0.9551024972069124 0  -0.2318201502675288 -0.9727586637650371 0  -0.1663293545831301 -0.9860702539900286 0  -0.1000956916240988 -0.994977815088504 0  -0.03341497700767455 -0.9994415637302546 0  0.03341497700767418 -0.9994415637302546 0  0.1000956916240984 -0.994977815088504 0  0.1663293545831297 -0.9860702539900286 0  0.2318201502675284 -0.9727586637650372 0  0.2962755808856337 -0.9551024972069125 0  0.3594077728375122 -0.9331806110416029 0  0.4209347624283348 -0.9070909137343408 0  0.4805817551866832 -0.8769499282066718 0  0.5380823531633725 -0.8428922714167971 0  0.5931797447293548 -0.8050700531275633 0  0.6456278515588023 -0.7636521965473321 0  0.6951924276746418 -0.7188236838779297 0  0.7416521056479575 -0.6707847301392235 0  0.7847993852786612 -0.6197498889602446 0  0.8244415603417603 -0.5659470943305952 0  0.8604015792601392 -0.5096166425919179 0  0.8925188358598808 -0.4510101192161026 0  0.9206498866764287 -0.3903892751634952 0  0.9446690916079188 -0.328024857839569 0  0.9644691750543765 -0.2641954018712863 0  0.9799617050365869 -0.199185985103836 0  0.99107748815478 -0.1332869553737791 0  0.9977668786231532 -0.06679263374512227 0  0.5766044443118978 0.06427876096865393 0  0.6 0 0  0.5766044443118978 -0.06427876096865397 0  0.517364817766693 -0.09848077530122082 0  0.45 -0.08660254037844384 0  0.4060307379214091 -0.03420201433256687 0  0.4060307379214091 0.03420201433256689 0  0.45 0.08660254037844388 0  0.5173648177666931 0.0984807753012208 0  -0.2965686451888956 -3.216245299353273e-16 0  0.02995799338450739 0.4463820650390996 0  0.02995799338450775 -0.4463820650390995 0  -0.3955719483658615 0.4150379846043291 0  -0.4169105514339966 -0.4032046590493156 0  -0.6262911543602625 0.1406750128378851 0  0.4099697941225568 0.4649562806856727 0  0.4099697941225571 -0.4649562806856725 0  0.05127126517818126 0.08817401780249684 0  -0.1831682142260297 -0.6686721086721615 0  -0.1831682142260294 0.6686721086721619 0  -0.6520464330424147 -0.1814832365373373 0  0.2091634468672813 0.6766366337832459 0  0.1883365569596445 -0.6875396105945327 0  0.2159040325791659 -0.2383848214817743 0  -0.1744543149380852 0.2484563274625736 0  -0.06716122455575962 -0.1748068953293204 0  0.2513036159616241 0.2568747514607447 0  0.6477088057990819 -0.3356515765545967 0  0.6477088057990816 0.3356515765545969 0  -0.6429348001755962 0.3888615828205575 0  -0.4176911395802332 -0.639529979133491 0  -0.6487907438517166 -0.4141725603623674 0  -0.4382859878713386 0.638471665172117 0  -0.1883060146004528 -0.3712832336183189 0  -0.4093410988944064 0.1924263534676403 0  0.7784262897673441 0.1313041761919452 0  0.7692266286696862 -0.1588101168391893 0  -0.3273037620396328 -0.2103878546156154 0  -0.1798454764806241 0.458542771899162 0  0.4017553023960708 -0.6784121172515977 0  -0.7833260349743965 -0.008879310202590557 0  -0.4794205971237819 -0.08072648637784163 0  0.4174224539707952 0.6731117436251652 0  0.01086072875173043 0.7779172259216657 0  0.5993482410529842 0.529941331081667 0  0.5800727149699484 -0.5610028828936883 0  -0.002913066865704084 -0.7863475463243047 0  0.4644692980420977 0.281953550413786 0  0.4644692980420981 -0.281953550413786 0  0.2204900511885566 0.4449044634307799 0  0.2180189937406393 -0.4954600835645215 0  0.2060327886352148 -0.03858259979572255 0  -0.7808481637664745 0.2422213783127347 0  0.06990549121986947 0.2690208389553115 0  -0.1124194025531066 0.00373323440863213 0  -0.2838372182411008 -0.5216724848805774 0  0.03130371177689495 -0.6180840640285581 0  -0.7762218745645899 -0.2989562490519654 0  0.05214597457400483 0.613977754767665 0  -0.4956543915012957 -0.251170934148539 0  -0.5275381827985767 -0.5210032025475994 0  -0.5301696116286927 0.5051064981533095 0  -0.16809888692682 -0.8270183856644552 0  -0.3240121076586466 0.7657967722683376 0  -0.1438288839385778 0.8257307941019953 0  -0.2998557134907758 0.5617360107302967 0  0.1684367173033988 0.8286804545679113 0  -0.6250110225296729 -0.01789111552180164 0  -0.3137113036339798 -0.7609856814941814 0  -0.1170075000122383 -0.518790272865666 0  0.05108989091758273 -0.06990257622780319 0  -0.5427150590508653 0.270931066435428 0  0.1429967624415053 -0.8342737229435346 0  0.2997239097253987 -0.7923562376371267 0  0.2676893696803808 0.1031671400466477 0  0.3261287713905652 -0.3403712992466087 0  0.7950089908879098 0.2858943947941835 0  0.3151824699376609 0.7865115564528017 0  0.3115634426834656 0.5726907027982669 0  0.704039443019545 -0.4753841151972395 0  0.7470219429290336 -0.01290298646666185 0  -0.8321235529347469 -0.1551998530807213 0  0.05709269783870959 -0.2835250962999872 0  -0.2021447182543711 -0.1140175740005167 0  -0.05854661192244001 0.3332686099592011 0  -0.4944752806394075 0.06870205217856792 0  0.6465785626300955 0.1909460270059954 0  0.6150172073263744 -0.1992156468339642 0  -0.08321382237958147 0.5651617303365446 0  -0.6720985235143602 0.5299695767353035 0  0.3081627102340266 -0.1336818188805801 0  0.7954182263431147 -0.306979485853048 0  -0.0801862748968569 0.1421281857867356 0  -0.2704290205461716 0.3511058548763765 0  -0.2733876063765904 0.1428439818287992 0  -0.6630142665634642 -0.5525422555121322 0  0.7250705628492369 0.4580712316052048 0  0.5291222693526491 0.4008241947929737 0  0.543461903937986 -0.42718897847992 0  -0.5796080761878384 0.6375025331582558 0  -0.5686737890628571 -0.6510435601866913 0  0.1471374478051752 -0.382217095965624 0  0.367570301927055 0.1909193223550535 0  0.8716954478736112 0.02914395839180125 0  0.3487459623057126 0.3471068582357988 0  0.1543099947611301 0.1689404724154097 0  -0.07297109638128209 -0.3068109338541753 0  0.2917188534562402 -0.6051822784871949 0  -0.2024804285799746 -0.2430406644266693 0  -0.7781944430042567 0.3778986247265116 0  -0.8494742869240901 0.1173360134018405 0  -0.7720870174071235 -0.4231153023082534 0  -0.449110317890587 -0.7582468751604555 0  0.5545923664877855 0.6602415200552888 0  0.5344562863167422 -0.6858381270857777 0  0.4766344790775262 0.566780609122759 0  -0.445772660902635 0.7601337067632379 0  -0.6616262409933745 0.2552874992358464 0  0.1653545872376546 0.5583524484327292 0  -0.4028773004059317 -0.5214149604035093 0  -0.2990776467406227 -0.6432205051811133 0  0.1120905589734103 -0.1750840530986415 0  0.06398953478431954 0.8829484618446889 0  -0.5251433924072202 0.3874134656159851 0  -0.6099143365137073 -0.2972611803339155 0  -0.04678747567896177 0.6762313351705379 0  -0.533024901227188 -0.4050045909030676 0  0.1246725721343765 0.3745355098341986 0  -0.3000083100373507 -0.4058635916290634 0  -0.06655528087218812 -0.8836517798731542 0  -0.4088769106504622 0.5282941447433156 0  -0.7345489526308654 0.09712579222418664 0  0.1081465349890011 -0.5316255335782825 0  0.8804353520695445 -0.1485109638682795 0  -0.3713419913383989 0.08543731094255294 0  -0.43252237558797 0.3055918258709063 0  0.1125429094389743 0.7322321616258178 0  -0.8927041854393205 -0.02984635711944513 0  -0.06589562952638969 -0.6859291199262957 0  -0.7331201394770802 -0.1069200385835311 0  -0.08867729710384351 -0.414111852980487 0  -0.0447872543388
[...]
<PointData  Vectors="f_25"> 
<DataArray  type="Float64"  Name="f_25"  NumberOfComponents="3" format="ascii">0.0000000000000000e+00 0.0000000000000000e+00 0.0000000000000000e+00  0.0000000000000000e+00 0.0000000000000000e+00 0.0000000000000000e+00  0.0000000000000000e+00 0.0000000000000000e+00 0.0000000000000000e+00  0.0000000000000000e+00 0.0000000000000000e+00 0.0000000000000000e+00  0.0000000000000000e+00 0.0000000000000000e+00 0.0000000000000000e+00  0.0000000000000000e+00 0.0000000000000000e+00 0.0000000000000000e+00  0.0000000000000000e+00 0.0000000000000000e+00 0.0000000000000000e+00  0.0000000000000000e+00 0.0000000000000000e+00 0.0000000000000000e+00  0.0000000000000000e+00 0.0000000000000000e+00 0.0000000000000000e+00  0.0000000000000000e+00 0.0000000000000000e+00 0.0000000000000000e+00  0.0000000000000000e+00 0.0000000000000000e+00 0.0000000000000000e+00  0.0000000000000000e+00 0.0000000000000000e+00 0.0000000000000000e+00  0.0000000000000000e+00 0.0000000000000000e+00 0.0000000000000000e+00  0.0000000000000000e+00 0.0000000000000000e+00 0.0000000000000000e+00  0.0000000000000000e+00 0.0000000000000000e+00 0.0000000000000000e+00  0.0000000000000000e+00 0.0000000000000000e+00 0.0000000000000000e+00  0.0000000000000000e+00 0.0000000000000000e+00 0.0000000000000000e+00  0.0000000000000000e+00 0.0000000000000000e+00 0.0000000000000000e+00  0.0000000000000000e+00 0.0000000000000000e+00 0.0000000000000000e+00  0.0000000000000000e+00 0.0000000000000000e+00 0.0000000000000000e+00  0.0000000000000000e+00 0.0000000000000000e+00 0.0000000000000000e+00  0.0000000000000000e+00 0.0000000000000000e+00 0.0000000000000000e+00  0.0000000000000000e+00 0.0000000000000000e+00 0.0000000000000000e+00  0.0000000000000000e+00 0.0000000000000000e+00 0.0000000000000000e+00  0.0000000000000000e+00 0.0000000000000000e+00 0.0000000000000000e+00  0.0000000000000000e+00 0.0000000000000000e+00 0.0000000000000000e+00  0.0000000000000000e+00 0.0000000000000000e+00 0.0000000000000000e+00  0.0000000000000000e+00 0.0000000000000000e+00 0.0000000000000000e+00  0.0000000000000000e+00 0.0000000000000000e+00 0.0000000000000000e+00  0.0000000000000000e+00 0.0000000000000000e+00 0.0000000000000000e+00  0.0000000000000000e+00 0.0000000000000000e+00 0.0000000000000000e+00  0.0000000000000000e+00 0.0000000000000000e+00 0.0000000000000000e+00  0.0000000000000000e+00 0.0000000000000000e+00 0.0000000000000000e+00  0.0000000000000000e+00 0.0000000000000000e+00 0.0000000000000000e+00  0.0000000000000000e+00 0.0000000000000000e+00 0.0000000000000000e+00  0.0000000000000000e+00 0.0000000000000000e+00 0.0000000000000000e+00  0.0000000000000000e+00 0.0000000000000000e+00 0.0000000000000000e+00  0.0000000000000000e+00 0.0000000000000000e+00 0.0000000000000000e+00  0.0000000000000000e+00 0.0000000000000000e+00 0.0000000000000000e+00  0.0000000000000000e+00 0.0000000000000000e+00 0.0000000000000000e+00  0.0000000000000000e+00 0.0000000000000000e+00 0.0000000000000000e+00  0.0000000000000000e+00 0.0000000000000000e+00 0.0000000000000000e+00  0.0000000000000000e+00 0.0000000000000000e+00 0.0000000000000000e+00  0.0000000000000000e+00 0.0000000000000000e+00 0.0000000000000000e+00  0.0000000000000000e+00 0.0000000000000000e+00 0.0000000000000000e+00  0.0000000000000000e+00 0.0000000000000000e+00 0.0000000000000000e+00  0.0000000000000000e+00 0.0000000000000000e+00 0.0000000000000000e+00  0.0000000000000000e+00 0.0000000000000000e+00 0.0000000000000000e+00  0.0000000000000000e+00 0.0000000000000000e+00 0.0000000000000000e+00  0.0000000000000000e+00 0.0000000000000000e+00 0.0000000000000000e+00  0.0000000000000000e+00 0.0000000000000000e+00 0.0000000000000000e+00  0.0000000000000000e+00 0.0000000000000000e+00 0.0000000000000000e+00  0.0000000000000000e+00 0.0000000000000000e+00 0.0000000000000000e+00  0.0000000000000000e+00 0.0000000000000000e+00 0.0000000000000000e+00  0.0000000000000000e+00 0.0000000000000000e+00 0.0000000000000000e+00  0.0000000000000000e+00 0.0000000000000000e+00 0.0000000000000000e+00  0.0000000000000000e+00 0.0000000000000000e+00 0.0000000000000000e+00  0.0000000000000000e+00 0.0000000000000000e+00 0.0000000000000000e+00  0.0000000000000000e+00 0.0000000000000000e+00 0.0000000000000000e+00  0.0000000000000000e+00 0.0000000000000000e+00 0.0000000000000000e+00  0.0000000000000000e+00 0.0000000000000000e+00 0.0000000000000000e+00  0.0000000000000000e+00 0.0000000000000000e+00 0.0000000000000000e+00  0.0000000000000000e+00 0.0000000000000000e+00 0.0000000000000000e+00  0.0000000000000000e+00 0.0000000000000000e+00 0.0000000000000000e+00  0.0000000000000000e+00 0.0000000000000000e+00 0.0000000000000000e+00  0.0000000000000000e+00 0.0000000000000000e+00 0.0000000000000000e+00  0.0000000000000000e+00 0.0000000000000000e+00 0.0000000000000000e+00  0.0000000000000000e+00 0.0000000000000000e+00 0.0000000000000000e+00  0.0000000000000000e+00 0.0000000000000000e+00 0.0000000000000000e+00  0.0000000000000000e+00 0.0000000000000000e+00 0.0000000000000000e+00  0.0000000000000000e+00 0.0000000000000000e+00 0.0000000000000000e+00  0.0000000000000000e+00 0.0000000000000000e+00 0.0000000000000000e+00  0.0000000000000000e+00 0.0000000000000000e+00 0.0000000000000000e+00  0.0000000000000000e+00 0.0000000000000000e+00 0.0000000000000000e+00  0.0000000000000000e+00 0.0000000000000000e+00 0.0000000000000000e+00  0.0000000000000000e+00 0.0000000000000000e+00 0.0000000000000000e+00  0.0000000000000000e+00 0.0000000000000000e+00 0.0000000000000000e+00  0.0000000000000000e+00 0.0000000000000000e+00 0.0000000000000000e+00  0.0000000000000000e+00 0.0000000000000000e+00 0.0000000000000000e+00  0.0000000000000000e+00 0.0000000000000000e+00 0.0000000000000000e+00  0.0000000000000000e+00 0.0000000000000000e+00 0.0000000000000000e+00  0.0000000000000000e+00 0.0000000000000000e+00 0.0000000000000000e+00  0.0000000000000000e+00 0.0000000000000000e+00 0.0000000000000000e+00  0.0000000000000000e+00 0.0000000000000000e+00 0.0000000000000000e+00  0.0000000000000000e+00 0.0000000000000000e+00 0.0000000000000000e+00  0.0000000000000000e+00 0.0000000000000000e+00 0.0000000000000000e+00  0.0000000000000000e+00 0.0000000000000000e+00 0.0000000000000000e+00  0.0000000000000000e+00 0.0000000000000000e+00 0.0000000000000000e+00  0.0000000000000000e+00 0.0000000000000000e+00 0.0000000000000000e+00  0.0000000000000000e+00 0.0000000000000000e+00 0.0000000000000000e+00  0.0000000000000000e+00 0.0000000000000000e+00 0.0000000000000000e+00  0.0000000000000000e+00 0.0000000000000000e+00 0.0000000000000000e+00  0.0000000000000000e+00 0.0000000000000000e+00 0.0000000000000000e+00  0.0000000000000000e+00 0.0000000000000000e+00 0.0000000000000000e+00  0.0000000000000000e+00 0.0000000000000000e+00 0.0000000000000000e+00  0.0000000000000000e+00 0.0000000000000000e+00 0.0000000000000000e+00  0.0000000000000000e+00 0.0000000000000000e+00 0.0000000000000000e+00  0.0000000000000000e+00 0.0000000000000000e+00 0.0000000000000000e+00  0.0000000000000000e+00 0.0000000000000000e+00 0.0000000000000000e+00  0.0000000000000000e+00 0.0000000000000000e+00 0.0000000000000000e+00  0.0000000000000000e+00 0.0000000000000000e+00 0.0000000000000000e+00  0.0000000000000000e+00 0.0000000000000000e+00 0.0000000000000000e+00  0.0000000000000000e+00 0.0000000000000000e+00 0.0000000000000000e+00  -9.7750747270427006e-05 -1.3093064622851777e-01 0.0000000000000000e+00  -1.7380755527766378e-01 2.5227330374422017e-02 0.0000000000000000e+00  1.7418696694037189e-01 2.4857872529575657e-02 0.0000000000000000e+00  -1.4475014765517957e-01 -1.3330957220366696e-01 0.0000000000000000e+00  1.3910097751665351e-01 -1.3947146535990440e-01 0.0000000000000000e+00  -4.2993232038527548e-02 -1.8860151738080161e-01 0.0000000000000000e+00  -1.2978455311768103e-01 1.1398127164839571e-01 0.0000000000000000e+00  1.3001249824139871e-01 1.1462286562178944e-01 0.0000000000000000e+00  -3.7409741325966958e-02 6.8069658325441082e-02 0.0000000000000000e+00  1.7053571626716274e-01 -4.3834474808003024e-02 0.0000000000000000e+00  -1.7052062799628467e-01 -4.3663213795562920e-02 0.0000000000000000e+00  5.0518504527997693e-02 -1.7949598710273626e-01 0.0000000000000000e+00  -1.5647845375174108e-01 5.1585158542992927e-02 0.0000000000000000e+00  1.5738468217362622e-01 4.6175639900852786e-02 0.0000000000000000e+00  7.7778554773553749e-02 1.1719891050135460e-01 0.0000000000000000e+00  -1.1645650587691575e-01 -6.5981588592442686e-02 0.0000000000000000e+00  8.2357072906167381e-02 -6.0734092706579458e-03 0.0000000000000000e+00  -7.9782942152103423e-02 1.2150004714338654e-01 0.0000000000000000e+00  9.0892602743492062e-02 1.3412705520328733e-01 0.0000000000000000e+00  -9.1426018544133444e-02 1.3394240109955349e-01 0.0000000000000000e+00  -8.4385920880704277e-02 -1.3828285977522733e-01 0.0000000000000000e+00  1.3010954812169831e-01 -8.3496478549959299e-02 0.0000000000000000e+00  8.3479578536640134e-02 -1.2964735205828679e-01 0.0000000000000000e+00  -1.2440916227188455e-01 -8.4120152348603150e-02 0.0000000000000000e+00  1.5873967283759693e-01 -6.9770182379645232e-02 0.0000000000000000e+00  -8.1612709504743711e-02 -1.6639848089715473e-01 0.0000000000000000e+00  -4.5413754968032925e-02 1.6759967750302254e-01 0.0000000000000000e+00  5.3559890312377685e-02 1.6311353413131691e-01 0.0000000000000000e+00  9.4836246481119643e-02 -1.3795458409199321e-01 0.0000000000000000e+00  -1.7788351289717946e-01 -6.1392608521071965e-02 0.0000000000000000e+00  1.1475899520126685e-01 6.8515107100697650e-02 0.0000000000000000e+00  1.7182521099299798e-03 -1.4888702707285370e-01 0.0000000000000000e+00  3.2889852308496961e-02 -1.8967717523307059e-01 0.0000000000000000e+00  -1.1188553547194939e-01 6.9745565762933490e-02 0.0000000000000000e+00  -1.4320525121773983e-01 3.8335756189282681e-03 0.0000000000000000e+00  -8.9184762273690668e-02 9.4433681254230420e-02 0.0000000000000000e+00  8.9689762250561411e-02 8.8511316318712577e-02 0.0000000000000000e+00  1.3979624761307291e-01 1.0654223201970302e-03 0.0000000000000000e+00  -8.5265473182363799e-02 1.2220386988219073e-01 0.0000000000000000e+00  8.5039446392035131e-02 1.2394315035248799e-01 0.0000000000000000e+00  -1.5215515930841653e-01 8.8531894661337970e-02 0.0000000000000000e+00  1.6244525630261564e-01 8.0962754396227285e-02 0.0000000000000000e+00  6.9161700367970725e-03 1.4987697474834213e-01 0.0000000000000000e+00  -3.9014236600888250e-02 -1.2533627985085094e-01 0.0000000000000000e+00  -1.1211491093099762e-01 5.9493578611717030e-02 0.0000000000000000e+00  -2.0681072100491044e-03 -2.9330643421692969e-02 0.0000000000000000e+00  1.7238779317816766e-01 -8.9163593996286747e-02 0.0000000000000000e+00  1.8522661281559899e-01 1.4881352150782642e-02 0.0000000000000000e+00  4.4465236004681899e-02 -1.1486864644418959e-01 0.0000000000000000e+00  -1.8406763590885233e-01 2.1487731899877426e-02 0.0000000000000000e+00  9.1512412936645221e-02 -1.7608564918634548e-01 0.0000000000000000e+00  1.1657347568544166e-01 -1.1649651180121319e-01 0.0000000000000000e+00  -1.1686789174446160e-01 -1.2102938017294743e-01 0.0000000000000000e+00  1.0959890986205806e-01 -2.1466154746948820e-02 0.0000000000000000e+00  -1.1093430305744717e-01 -4.6153648911695856e-02 0.0000000000000000e+00  -1.1322249480973319e-01 -1.8875674002758181e-02 0.0000000000000000e+00  -1.6891708340820283e-01 -8.6427721261768162e-02 0.0000000000000000e+00  -1.0507298687364529e-01 2.2227272332545574e-02 0.0000000000000000e+00  5.6523039367390284e-03 -1.9586713529880895e-01 0.0000000000000000e+00  1.1561309547677402e-01 -4.6761881439380662e-02 0.0000000000000000e+00  1.8767819520293583e-01 -3.4893267204654896e-02 0.0000000000000000e+00  2.8790640915291786e-02 6.8606858012996375e-02 0.0000000000000000e+00  -8.9328479421661056e-02 -1.7560604247672090e-01 0.0000000000000000e+00  1.0561088574651091e-01 1.8971933786815710e-02 0.0000000000000000e+00  9.8332399889975525e-02 3.7898499095040825e-02 0.0000000000000000e+00  -1.0023061106934870e-02 1.5904191270938328e-01 0.0000000000000000e+00  1.0768886651894978e-01 1.2041269585022799e-01 0.0000000000000000e+00  -5.3962568081183250e-02 1.1701643543208493e-01 0.0000000000000000e+00  -9.7243595142499389e-02 3.9646375104396496e-02 0.0000000000000000e+00  -1.5121300209802224e-01 8.5986330765037575e-02 0.0000000000000000e+00  6.5383091874503724e-02 8.7526254362946518e-02 0.0000000000000000e+00  6.5293398269373045e-03 1.9952913785043114e-01 0.0000000000000000e+00  2.1079098616454493e-02 -1.1276566668923207e-01 0.0000000000000000e+00  1.1957742838990018e-01 5.1381656282206228e-02 0.0000000000000000e+00  5.5989456228481435e-02 -8.1997634712655865e-02 0.0000000000000000e+00  -1.4671569448820396e-01 -8.0286887037179736e-03 0.0000000000000000e+00  -2.7526587203777413e-02 -1.9257135540199782e-01 0.0000000000000000e+00  -8.8932108715026686e-02 1.5526416368609142e-01 0.0000000000000000e+00  9.2387922554115501e-02 1.4410904435172223e-01 0.0000000000000000e+00  -1.8974256229838801e-01 -2.1364087232359771e-02 0.0000000000000000e+00  -6.7122349097762907e-02 -8.4658705064340867e-02 0.0000000000000000e+00  7.8265176165053588e-03 1.5189615047838939e-01 0.0000000000000000e+00  5.3035223659719119e-02 1.0956788282941991e-01 0.0000000000000000e+00  -6.8009988746536867e-02 -1.2121979709824515e-02 0.0000000000000000e+00  -1.4765697970476860e-01 -1.0476176623406265e-01 0.0000000000000000e+00  -6.8450191078434933e-02 -1.1769503306402536e-01 0.0000000000000000e+00  6.6430983891514625e-02 -7.9259833896188597e-02 0.0000000000000000e+00  -6.1292622509185372e-02 8.6623178722083902e-02 0.0000000000000000e+00  -1.0856058336601447e-01 1.2583809291088541e-01 0.0000000000000000e+00  1.0800195816433876e-01 1.2243215379494812e-01 0.0000000000000000e+00  -7.7124274386631553e-02 -6.9664861469368192e-02 0.0000000000000000e+00  7.7051797125821345e-02 -6.6879774415001467e-02 0.0000000000000000e+00  1.4496741513586497e-01 7.5470211325878903e-02 0.0000000000000000e+00  -2.6698965599508663e-02 1.2531542129581222e-01 0.0000000000000000e+00  -6.1082731298566385e-03 1.3235039240339663e-01 0.0000000000000000e+00  -1.0749489980349944e-01 1.2136566927293024e-01 0.0000000000000000e+00  -5.8594778491891340e-02 1.1025077305401886e-01 0.0000000000000000e+00  1.3792506729019754e-01 -1.4753904865796549e-02 0.0000000000000000e+00  1.5322530451948610e-01 7.7338800470303656e-02 0.0000000000000000e+00  1.1382996558500914e-01 -8.0561817181177636e-02 0.0000000000000000e+00  -4.5014085310718911e-02 -9.2352279505407059e-02 0.0000000000000000e+00  -1.4784152935071041e-02 -1.0689875962426861e-01 0.0000000000000000e+00  4.4561909452143673e-02 -8.1067377092263984e-02 0.0000000000000000e+00  7.7892463105323814e-02 -4.5765570404531719e-02 0.0000000000000000e+00  -7.4028527873967534e-02 6.1049475640343666e-02 0.0000000000000000e+00  7.2612645489505329e-02 5.5884417782042881e-02 0.0000000000000000e+00  -1.1669082735888035e-01 9.5895546722269187e-02 0.0000000000000000e+00  -7.8129576964957898e-02 -4.5457477439106775e-02 0.0000000000000000e+00  -6.4460731846196190e-02 -1.6532689682224402e-01 0.0000000000000000e+00  -1.7432659266876177e-01 5.9178955089648468e-02 0.0000000000000000e+00  1.4969228229037135e-01 -1.1282827688786340e-01 0.0000000000000000e+00  1.5791335269244317e-01 -7.1002337304427884e-02 0.0000000000000000e+00  6.6776840971535315e-02 9.0122654269430724e-02 0.0000000000000000e+00  -8.4014742729672201e-02 6.5931773514866518e-03 0.0000000000000000e+00  -1.1427804382195458e-01 -1.5216099298706059e-01 0.0000000000000000e+00  8.2176436667131425e-02 -1.6643968201415865e-01 0.0000000000000000e+00  -1.7729496026295069e-01 -8.5298170584276415e-03 0.0000000000000000e+00  1.1415300243194862e-01 -1.4790642669605608e-01 0.0000000000000000e+00  -1.4478223764351003e-01 6.8960053373042854e-02 0.0000000000000000e+00  1.5760167796694502e-01 -1.0978609381166596e-01 0.0000000000000000e+00  8.4454807878172514e-02 -5.9008760930615448e-03 0.0000000000000000e+00  -1.4808391220088027e-01 -1.1175434140178835e-01 0.0000000000000000e+00  -2.2009065062874610e-02 -1.6547789489949669e-01 0.0000000000000000e+00  1.8010506105664500e-01 4.5436015659142390e-02 0.0000000000000000e+00  2.3775086234009597e-02 1.0837217249677041e-01 0.0000000000000000e+00  -3.9178137692169636e-02 -1.6053563446629679e-01 0.0000000000000000e+00  -1.1585643016487858e-01 -1.5866355450025177e-01 0.0000000000000000e+00  -1.5408945722296560e-01 2.6184947282319772e-02 0.0000000000000000e+00  2.8668064703289411e-03 -8.4106310826142505e-02 0.0000000000000000e+00  1.7470334008376115e-01 -1.3521404553063162e-02 0.0000000000000000e+00  2.4261282688290503e-02 -1.6514836515775663e-01 0.0000000000000000e+00  1.7161681389428710e-01 -2.4632150046130289e-02 0.0000000000000000e+00  -9.2777758968844395e-02 -4.2339561281104846e-03 0.0000000000000000e+00  5.4595961130250600e-02 1.2719572929704670e-01 0.0000000000000000e+00  8.1605429107022648e-02 4.5931529091410191e-03 0.0000000000000000e+00  1.5395342432394418e-01 2.1893056122728554e-02 0.0000000000000000e+00  7.1739569097686098e-02 1.8539099332922532e-01 0.0000000000000000e+00  -1.9352854227381089e-02 1.2674813863218959e-01 0.0000000000000000e+00  6.4116685320263669e-02 3.8024633612616189e-02 0.0000000000000000e+00  1.3518541930254049e-01 9.4178541822603781e-02 0.0000000000000000e+00  -6.3392657992782903e-02 3.7591298027329904e-02 0.0000000000000000e+00  2.2280459034393018e-03 1.8813325451221147e-01 0.0000000000000000e+00  -2.9203296539592655e-02 -8.4019747059834574e-02 0.0000000000000000e+00  -1.6587542826643520e-01 -1.0219013809059631e-01 0.0000000000000000e+00  -5.1598471019478509e-02 2.0088283198431631e-01 0.0000000000000000e+00  -2.1295910721301613e-02 1.0817741380150385e-01 0.0000000000000000e+00  1.1815783779540673e-01 -1.5185349174441828e-01 0.0000000000000000e+00  5.0327003958032662e-02 -1.3490008387720540e-01 0.0000000000000000e+00  -1.1030339372390759e-01 -1.2933857081016609e-01 0.0000000000000000e+00  -1.8385530307719564e-01 -5.6294178933843080e-02 0.0000000000000000e+00  -1.8085607924449570e-01 -1.8539272591719540e-02 0.0000000000000000e+00  -1.5436686650711640e-01 -5.8429509491098576e-02 0.0000000000000000e+00  7.7926217932189679e-02 1.4853942522812758e-01 0.0000000000000000e+00  -1.3646594417630781e-01 6.5044903621452016e-02 0.0000000000000000e+00  -6.1803366290310434e-02 -1.8895845011254872e-01 0.0000000000000000e+00  -5.0575926102833742e-02 6.0059885588083228e-02 0.0000000000000000e+00  -1.5449601984463524e-01 -6.4733811921779544e-02 0.0000000000000000e+00  -8.3330835142835513e-02 1.1504788148552504e-01 0.0000000000000000e+00  -9.1844622078548543e-02 1.1521376842917795e-01 0.0000000000000000e+00  3.6957035414601394e-02 1.3356809924567808e-01 0.0000000000000000e+00  -7.2979232197485672e-02 -1.9697679223012209e-02 0.0000000000000000e+00  7.2345712903509690e-02 -1.7251040754592681e-01 0.0000000000000000e+00  6.4436690237242265e-03 -1.7140214605382931e-01 0.0000000000000000e+00  3.7647410097685109e-02 -1.9531373477847883e-01 0.0000000000000000e+00  5.0241161043898391e-02 5.6802756237663177e-02 0.0000000000000000e+00  1.3221315819989463e-01 -1.1466321927587582e-01 0.0000000000000000e+00  -8.1546388051497470e-02 3.9552717196849885e-02 0.0000000000000000e+00  4.2986225416170407e-02 9.3981846025868288e-02 0.0000000000000000e+00  1.1661074394406316e-01 1.0811388544054294e-01 0.0000000000000000e+00  6.7509770782504488e-02 -2.3139385171046686e-02 0.0000000000000000e+00  1.7027704824373324e-01 6.2125345042459909e-02 0.0000000000000000e+00  1.4055510652388614e-01 1.0636181576593569e-01 0.0000000000000000e+00  -7.3779871322604482e-02 -6.7671543600743650e-02 0.0000000000000000e+00  6.8565767260056421e-02 1.8982472062481125e-02 0.0000000000000000e+00  -1.1107678952960390e-01 -1.4419115556235868e-02 0.0000000000000000e+00  -3.8191778744032880e-02 7.2373064588253017e-02 0.0000000000000000e+00  4.4460946268771992e-02 7.5446327021549769e-02 0.0000000000000000e+00  2.2092003260182614e-02 -7.5927740936534552e-02 0.0000000000000000e+00  -9.8040414450188920e-02 1.3147671582311207e-