<?xml version="1.0"?>
<VTKFile type="UnstructuredGrid"  version="0.1"  >
<UnstructuredGrid>
<Piece  NumberOfPoints="1890" NumberOfCells="3574">
<Points>
<DataArray  type="Float64"  NumberOfComponents="3"  format="ascii">1 0 0  0.9977668786231532 0.06679263374512155 0  0.9910774881547801 0.1332869553737788 0  0.9799617050365869 0.1991859851038361 0  0.9644691750543766 0.264195401871286 0  0.9446690916079188 0.3280248578395691 0  0.9206498866764288 0.3903892751634948 0  0.8925188358598812 0.4510101192161018 0  0.8604015792601394 0.5096166425919174 0  0.8244415603417603 0.5659470943305952 0  0.784799385278661 0.6197498889602449 0  0.7416521056479576 0.6707847301392235 0  0.6951924276746423 0.7188236838779293 0  0.6456278515588024 0.7636521965473321 0  0.5931797447293553 0.8050700531275629 0  0.5380823531633727 0.842892271416797 0  0.4805817551866838 0.8769499282066715 0  0.420934762428335 0.9070909137343407 0  0.3594077728375128 0.9331806110416025 0  0.2962755808856342 0.9551024972069124 0  0.2318201502675284 0.9727586637650372 0  0.1663293545831299 0.9860702539900286 0  0.1000956916240984 0.994977815088504 0  0.03341497700767464 0.9994415637302546 0  -0.03341497700767452 0.9994415637302546 0  -0.1000956916240983 0.994977815088504 0  -0.16632935458313 0.9860702539900286 0  -0.2318201502675281 0.9727586637650372 0  -0.2962755808856338 0.9551024972069124 0  -0.3594077728375129 0.9331806110416025 0  -0.4209347624283349 0.9070909137343408 0  -0.4805817551866837 0.8769499282066716 0  -0.5380823531633726 0.8428922714167971 0  -0.5931797447293552 0.805070053127563 0  -0.6456278515588024 0.7636521965473321 0  -0.6951924276746423 0.7188236838779293 0  -0.7416521056479576 0.6707847301392235 0  -0.784799385278661 0.6197498889602449 0  -0.8244415603417601 0.5659470943305954 0  -0.8604015792601392 0.5096166425919177 0  -0.8925188358598811 0.4510101192161021 0  -0.9206498866764287 0.3903892751634951 0  -0.9446690916079189 0.3280248578395689 0  -0.9644691750543765 0.2641954018712862 0  -0.9799617050365867 0.1991859851038363 0  -0.99107748815478 0.133286955373779 0  -0.9977668786231532 0.0667926337451217 0  -1 -3.216245299353273e-16 0  -0.9977668786231532 -0.06679263374512145 0  -0.9910774881547801 -0.1332869553737783 0  -0.9799617050365869 -0.1991859851038361 0  -0.9644691750543766 -0.264195401871286 0  -0.9446690916079188 -0.3280248578395691 0  -0.9206498866764288 -0.3903892751634949 0  -0.8925188358598815 -0.4510101192161015 0  -0.8604015792601394 -0.5096166425919175 0  -0.8244415603417605 -0.5659470943305949 0  -0.7847993852786611 -0.6197498889602446 0  -0.7416521056479575 -0.6707847301392236 0  -0.6951924276746424 -0.7188236838779292 0  -0.6456278515588025 -0.7636521965473319 0  -0.593179744729355 -0.8050700531275631 0  -0.5380823531633728 -0.842892271416797 0  -0.4805817551866835 -0.8769499282066716 0  -0.4209347624283351 -0.9070909137343407 0  -0.3594077728375134 -0.9331806110416024 0  -0.296275580885634 -0.9551024972069124 0  -0.2318201502675288 -0.9727586637650371 0  -0.1663293545831301 -0.9860702539900286 0  -0.1000956916240988 -0.994977815088504 0  -0.03341497700767455 -0.9994415637302546 0  0.03341497700767418 -0.9994415637302546 0  0.1000956916240984 -0.994977815088504 0  0.1663293545831297 -0.9860702539900286 0  0.2318201502675284 -0.9727586637650372 0  0.2962755808856337 -0.9551024972069125 0  0.3594077728375122 -0.9331806110416029 0  0.4209347624283348 -0.9070909137343408 0  0.4805817551866832 -0.8769499282066718 0  0.5380823531633725 -0.8428922714167971 0  0.5931797447293548 -0.8050700531275633 0  0.6456278515588023 -0.7636521965473321 0  0.6951924276746418 -0.7188236838779297 0  0.7416521056479575 -0.6707847301392235 0  0.7847993852786612 -0.6197498889602446 0  0.8244415603417603 -0.5659470943305952 0  0.8604015792601392 -0.5096166425919179 0  0.8925188358598808 -0.4510101192161026 0  0.9206498866764287 -0.3903892751634952 0  0.9446690916079188 -0.328024857839569 0  0.9644691750543765 -0.2641954018712863 0  0.9799617050365869 -0.199185985103836 0  0.99107748815478 -0.1332869553737791 0  0.9977668786231532 -0.06679263374512227 0  0.5766044443118978 0.06427876096865393 0  0.6 0 0  0.5766044443118978 -0.06427876096865397 0  0.517364817766693 -0.09848077530122082 0  0.45 -0.08660254037844384 0  0.4060307379214091 -0.03420201433256687 0  0.4060307379214091 0.03420201433256689 0  0.45 0.08660254037844388 0  0.5173648177666931 0.0984807753012208 0  -0.2965686451888956 -3.216245299353273e-16 0  0.02995799338450739 0.4463820650390996 0  0.02995799338450775 -0.4463820650390995 0  -0.3955719483658615 0.4150379846043291 0  -0.4169105514339966 -0.4032046590493156 0  -0.6262911543602625 0.1406750128378851 0  0.4099697941225568 0.4649562806856727 0  0.4099697941225571 -0.4649562806856725 0  0.05127126517818126 0.08817401780249684 0  -0.1831682142260297 -0.6686721086721615 0  -0.1831682142260294 0.6686721086721619 0  -0.6520464330424147 -0.1814832365373373 0  0.2091634468672813 0.6766366337832459 0  0.1883365569596445 -0.6875396105945327 0  0.2159040325791659 -0.2383848214817743 0  -0.1744543149380852 0.2484563274625736 0  -0.06716122455575962 -0.1748068953293204 0  0.2513036159616241 0.2568747514607447 0  0.6477088057990819 -0.3356515765545967 0  0.6477088057990816 0.3356515765545969 0  -0.6429348001755962 0.3888615828205575 0  -0.4176911395802332 -0.639529979133491 0  -0.6487907438517166 -0.4141725603623674 0  -0.4382859878713386 0.638471665172117 0  -0.1883060146004528 -0.3712832336183189 0  -0.4093410988944064 0.1924263534676403 0  0.7784262897673441 0.1313041761919452 0  0.7692266286696862 -0.1588101168391893 0  -0.3273037620396328 -0.2103878546156154 0  -0.1798454764806241 0.458542771899162 0  0.4017553023960708 -0.6784121172515977 0  -0.7833260349743965 -0.008879310202590557 0  -0.4794205971237819 -0.08072648637784163 0  0.4174224539707952 0.6731117436251652 0  0.01086072875173043 0.7779172259216657 0  0.5993482410529842 0.529941331081667 0  0.5800727149699484 -0.5610028828936883 0  -0.002913066865704084 -0.7863475463243047 0  0.4644692980420977 0.281953550413786 0  0.4644692980420981 -0.281953550413786 0  0.2204900511885566 0.4449044634307799 0  0.2180189937406393 -0.4954600835645215 0  0.2060327886352148 -0.03858259979572255 0  -0.7808481637664745 0.2422213783127347 0  0.06990549121986947 0.2690208389553115 0  -0.1124194025531066 0.00373323440863213 0  -0.2838372182411008 -0.5216724848805774 0  0.03130371177689495 -0.6180840640285581 0  -0.7762218745645899 -0.2989562490519654 0  0.05214597457400483 0.613977754767665 0  -0.4956543915012957 -0.251170934148539 0  -0.5275381827985767 -0.5210032025475994 0  -0.5301696116286927 0.5051064981533095 0  -0.16809888692682 -0.8270183856644552 0  -0.3240121076586466 0.7657967722683376 0  -0.1438288839385778 0.8257307941019953 0  -0.2998557134907758 0.5617360107302967 0  0.1684367173033988 0.8286804545679113 0  -0.6250110225296729 -0.01789111552180164 0  -0.3137113036339798 -0.7609856814941814 0  -0.1170075000122383 -0.518790272865666 0  0.05108989091758273 -0.06990257622780319 0  -0.5427150590508653 0.270931066435428 0  0.1429967624415053 -0.8342737229435346 0  0.2997239097253987 -0.7923562376371267 0  0.2676893696803808 0.1031671400466477 0  0.3261287713905652 -0.3403712992466087 0  0.7950089908879098 0.2858943947941835 0  0.3151824699376609 0.7865115564528017 0  0.3115634426834656 0.5726907027982669 0  0.704039443019545 -0.4753841151972395 0  0.7470219429290336 -0.01290298646666185 0  -0.8321235529347469 -0.1551998530807213 0  0.05709269783870959 -0.2835250962999872 0  -0.2021447182543711 -0.1140175740005167 0  -0.05854661192244001 0.3332686099592011 0  -0.4944752806394075 0.06870205217856792 0  0.6465785626300955 0.1909460270059954 0  0.6150172073263744 -0.1992156468339642 0  -0.08321382237958147 0.5651617303365446 0  -0.6720985235143602 0.5299695767353035 0  0.3081627102340266 -0.1336818188805801 0  0.7954182263431147 -0.306979485853048 0  -0.0801862748968569 0.1421281857867356 0  -0.2704290205461716 0.3511058548763765 0  -0.2733876063765904 0.1428439818287992 0  -0.6630142665634642 -0.5525422555121322 0  0.7250705628492369 0.4580712316052048 0  0.5291222693526491 0.4008241947929737 0  0.543461903937986 -0.42718897847992 0  -0.5796080761878384 0.6375025331582558 0  -0.5686737890628571 -0.6510435601866913 0  0.1471374478051752 -0.382217095965624 0  0.367570301927055 0.1909193223550535 0  0.8716954478736112 0.02914395839180125 0  0.3487459623057126 0.3471068582357988 0  0.1543099947611301 0.1689404724154097 0  -0.07297109638128209 -0.3068109338541753 0  0.2917188534562402 -0.6051822784871949 0  -0.2024804285799746 -0.2430406644266693 0  -0.7781944430042567 0.3778986247265116 0  -0.8494742869240901 0.1173360134018405 0  -0.7720870174071235 -0.4231153023082534 0  -0.449110317890587 -0.7582468751604555 0  0.5545923664877855 0.6602415200552888 0  0.5344562863167422 -0.6858381270857777 0  0.4766344790775262 0.566780609122759 0  -0.445772660902635 0.7601337067632379 0  -0.6616262409933745 0.2552874992358464 0  0.1653545872376546 0.5583524484327292 0  -0.4028773004059317 -0.5214149604035093 0  -0.2990776467406227 -0.6432205051811133 0  0.1120905589734103 -0.1750840530986415 0  0.06398953478431954 0.8829484618446889 0  -0.5251433924072202 0.3874134656159851 0  -0.6099143365137073 -0.2972611803339155 0  -0.04678747567896177 0.6762313351705379 0  -0.533024901227188 -0.4050045909030676 0  0.1246725721343765 0.3745355098341986 0  -0.3000083100373507 -0.4058635916290634 0  -0.06655528087218812 -0.8836517798731542 0  -0.4088769106504622 0.5282941447433156 0  -0.7345489526308654 0.09712579222418664 0  0.1081465349890011 -0.5316255335782825 0  0.8804353520695445 -0.1485109638682795 0  -0.3713419913383989 0.08543731094255294 0  -0.43252237558797 0.3055918258709063 0  0.1125429094389743 0.7322321616258178 0  -0.8927041854393205 -0.02984635711944513 0  -0.06589562952638969 -0.6859291199262957 0  -0.7331201394770802 -0.1069200385835311 0  -0.08867729710384351 -0.414111852980487 0  -0.0447872543388
[...]
<PointData  Vectors="f_25"> 
<DataArray  type="Float64"  Name="f_25"  NumberOfComponents="3" format="ascii">0.0000000000000000e+00 0.0000000000000000e+00 0.0000000000000000e+00  0.0000000000000000e+00 0.0000000000000000e+00 0.0000000000000000e+00  0.0000000000000000e+00 0.0000000000000000e+00 0.0000000000000000e+00  0.0000000000000000e+00 0.0000000000000000e+00 0.0000000000000000e+00  0.0000000000000000e+00 0.0000000000000000e+00 0.0000000000000000e+00  0.0000000000000000e+00 0.0000000000000000e+00 0.0000000000000000e+00  0.0000000000000000e+00 0.0000000000000000e+00 0.0000000000000000e+00  0.0000000000000000e+00 0.0000000000000000e+00 0.0000000000000000e+00  0.0000000000000000e+00 0.0000000000000000e+00 0.0000000000000000e+00  0.0000000000000000e+00 0.0000000000000000e+00 0.0000000000000000e+00  0.0000000000000000e+00 0.0000000000000000e+00 0.0000000000000000e+00  0.0000000000000000e+00 0.0000000000000000e+00 0.0000000000000000e+00  0.0000000000000000e+00 0.0000000000000000e+00 0.0000000000000000e+00  0.0000000000000000e+00 0.0000000000000000e+00 0.0000000000000000e+00  0.0000000000000000e+00 0.0000000000000000e+00 0.0000000000000000e+00  0.0000000000000000e+00 0.0000000000000000e+00 0.0000000000000000e+00  0.0000000000000000e+00 0.0000000000000000e+00 0.0000000000000000e+00  0.0000000000000000e+00 0.0000000000000000e+00 0.0000000000000000e+00  0.0000000000000000e+00 0.0000000000000000e+00 0.0000000000000000e+00  0.0000000000000000e+00 0.0000000000000000e+00 0.0000000000000000e+00  0.0000000000000000e+00 0.0000000000000000e+00 0.0000000000000000e+00  0.0000000000000000e+00 0.0000000000000000e+00 0.0000000000000000e+00  0.0000000000000000e+00 0.0000000000000000e+00 0.0000000000000000e+00  0.0000000000000000e+00 0.0000000000000000e+00 0.0000000000000000e+00  0.0000000000000000e+00 0.0000000000000000e+00 0.0000000000000000e+00  0.0000000000000000e+00 0.0000000000000000e+00 0.0000000000000000e+00  0.0000000000000000e+00 0.0000000000000000e+00 0.0000000000000000e+00  0.0000000000000000e+00 0.0000000000000000e+00 0.0000000000000000e+00  0.0000000000000000e+00 0.0000000000000000e+00 0.0000000000000000e+00  0.0000000000000000e+00 0.0000000000000000e+00 0.0000000000000000e+00  0.0000000000000000e+00 0.0000000000000000e+00 0.0000000000000000e+00  0.0000000000000000e+00 0.0000000000000000e+00 0.0000000000000000e+00  0.0000000000000000e+00 0.0000000000000000e+00 0.0000000000000000e+00  0.0000000000000000e+00 0.0000000000000000e+00 0.0000000000000000e+00  0.0000000000000000e+00 0.0000000000000000e+00 0.0000000000000000e+00  0.0000000000000000e+00 0.0000000000000000e+00 0.0000000000000000e+00  0.0000000000000000e+00 0.0000000000000000e+00 0.0000000000000000e+00  0.0000000000000000e+00 0.0000000000000000e+00 0.0000000000000000e+00  0.0000000000000000e+00 0.0000000000000000e+00 0.0000000000000000e+00  0.0000000000000000e+00 0.0000000000000000e+00 0.0000000000000000e+00  0.0000000000000000e+00 0.0000000000000000e+00 0.0000000000000000e+00  0.0000000000000000e+00 0.0000000000000000e+00 0.0000000000000000e+00  0.0000000000000000e+00 0.0000000000000000e+00 0.0000000000000000e+00  0.0000000000000000e+00 0.0000000000000000e+00 0.0000000000000000e+00  0.0000000000000000e+00 0.0000000000000000e+00 0.0000000000000000e+00  0.0000000000000000e+00 0.0000000000000000e+00 0.0000000000000000e+00  0.0000000000000000e+00 0.0000000000000000e+00 0.0000000000000000e+00  0.0000000000000000e+00 0.0000000000000000e+00 0.0000000000000000e+00  0.0000000000000000e+00 0.0000000000000000e+00 0.0000000000000000e+00  0.0000000000000000e+00 0.0000000000000000e+00 0.0000000000000000e+00  0.0000000000000000e+00 0.0000000000000000e+00 0.0000000000000000e+00  0.0000000000000000e+00 0.0000000000000000e+00 0.0000000000000000e+00  0.0000000000000000e+00 0.0000000000000000e+00 0.0000000000000000e+00  0.0000000000000000e+00 0.0000000000000000e+00 0.0000000000000000e+00  0.0000000000000000e+00 0.0000000000000000e+00 0.0000000000000000e+00  0.0000000000000000e+00 0.0000000000000000e+00 0.0000000000000000e+00  0.0000000000000000e+00 0.0000000000000000e+00 0.0000000000000000e+00  0.0000000000000000e+00 0.0000000000000000e+00 0.0000000000000000e+00  0.0000000000000000e+00 0.0000000000000000e+00 0.0000000000000000e+00  0.0000000000000000e+00 0.0000000000000000e+00 0.0000000000000000e+00  0.0000000000000000e+00 0.0000000000000000e+00 0.0000000000000000e+00  0.0000000000000000e+00 0.0000000000000000e+00 0.0000000000000000e+00  0.0000000000000000e+00 0.0000000000000000e+00 0.0000000000000000e+00  0.0000000000000000e+00 0.0000000000000000e+00 0.0000000000000000e+00  0.0000000000000000e+00 0.0000000000000000e+00 0.0000000000000000e+00  0.0000000000000000e+00 0.0000000000000000e+00 0.0000000000000000e+00  0.0000000000000000e+00 0.0000000000000000e+00 0.0000000000000000e+00  0.0000000000000000e+00 0.0000000000000000e+00 0.0000000000000000e+00  0.0000000000000000e+00 0.0000000000000000e+00 0.0000000000000000e+00  0.0000000000000000e+00 0.0000000000000000e+00 0.0000000000000000e+00  0.0000000000000000e+00 0.0000000000000000e+00 0.0000000000000000e+00  0.0000000000000000e+00 0.0000000000000000e+00 0.0000000000000000e+00  0.0000000000000000e+00 0.0000000000000000e+00 0.0000000000000000e+00  0.0000000000000000e+00 0.0000000000000000e+00 0.0000000000000000e+00  0.0000000000000000e+00 0.0000000000000000e+00 0.0000000000000000e+00  0.0000000000000000e+00 0.0000000000000000e+00 0.0000000000000000e+00  0.0000000000000000e+00 0.0000000000000000e+00 0.0000000000000000e+00  0.0000000000000000e+00 0.0000000000000000e+00 0.0000000000000000e+00  0.0000000000000000e+00 0.0000000000000000e+00 0.0000000000000000e+00  0.0000000000000000e+00 0.0000000000000000e+00 0.0000000000000000e+00  0.0000000000000000e+00 0.0000000000000000e+00 0.0000000000000000e+00  0.0000000000000000e+00 0.0000000000000000e+00 0.0000000000000000e+00  0.0000000000000000e+00 0.0000000000000000e+00 0.0000000000000000e+00  0.0000000000000000e+00 0.0000000000000000e+00 0.0000000000000000e+00  0.0000000000000000e+00 0.0000000000000000e+00 0.0000000000000000e+00  0.0000000000000000e+00 0.0000000000000000e+00 0.0000000000000000e+00  0.0000000000000000e+00 0.0000000000000000e+00 0.0000000000000000e+00  0.0000000000000000e+00 0.0000000000000000e+00 0.0000000000000000e+00  0.0000000000000000e+00 0.0000000000000000e+00 0.0000000000000000e+00  0.0000000000000000e+00 0.0000000000000000e+00 0.0000000000000000e+00  0.0000000000000000e+00 0.0000000000000000e+00 0.0000000000000000e+00  0.0000000000000000e+00 0.0000000000000000e+00 0.0000000000000000e+00  0.0000000000000000e+00 0.0000000000000000e+00 0.0000000000000000e+00  0.0000000000000000e+00 0.0000000000000000e+00 0.0000000000000000e+00  0.0000000000000000e+00 0.0000000000000000e+00 0.0000000000000000e+00  0.0000000000000000e+00 0.0000000000000000e+00 0.0000000000000000e+00  0.0000000000000000e+00 0.0000000000000000e+00 0.0000000000000000e+00  0.0000000000000000e+00 0.0000000000000000e+00 0.0000000000000000e+00  0.0000000000000000e+00 0.0000000000000000e+00 0.0000000000000000e+00  0.0000000000000000e+00 0.0000000000000000e+00 0.0000000000000000e+00  0.0000000000000000e+00 0.0000000000000000e+00 0.0000000000000000e+00  0.0000000000000000e+00 0.0000000000000000e+00 0.0000000000000000e+00  0.0000000000000000e+00 0.0000000000000000e+00 0.0000000000000000e+00  -6.2680387335550342e-05 -1.1011885820212548e-01 0.0000000000000000e+00  -1.4632282196049867e-01 2.2910472572613517e-02 0.0000000000000000e+00  1.4657661932042401e-01 2.2666103734194944e-02 0.0000000000000000e+00  -1.2284968701599848e-01 -1.1258568751932013e-01 0.0000000000000000e+00  1.1805305113437466e-01 -1.1782459280880626e-01 0.0000000000000000e+00  -3.6463358684229681e-02 -1.5966500866194094e-01 0.0000000000000000e+00  -1.0778531441027493e-01 9.4899576675562605e-02 0.0000000000000000e+00  1.0793427331084524e-01 9.5351272350022359e-02 0.0000000000000000e+00  -3.0936570193468040e-02 6.2024524155041061e-02 0.0000000000000000e+00  1.4333294220988227e-01 -3.6449546560424227e-02 0.0000000000000000e+00  -1.4333158650894054e-01 -3.6345522951293750e-02 0.0000000000000000e+00  4.2774814020494378e-02 -1.5171688396283473e-01 0.0000000000000000e+00  -1.3030951323203424e-01 4.3409529954054941e-02 0.0000000000000000e+00  1.3106925150315113e-01 3.8904023188214627e-02 0.0000000000000000e+00  6.3220336471809593e-02 1.0097072650705170e-01 0.0000000000000000e+00  -9.8933450818243646e-02 -5.4174661427707174e-02 0.0000000000000000e+00  6.9539821539787647e-02 -1.9462620916263086e-03 0.0000000000000000e+00  -6.4853687190111517e-02 1.0366812228639381e-01 0.0000000000000000e+00  7.6892197487748573e-02 1.1090576258692013e-01 0.0000000000000000e+00  -7.7224487649181328e-02 1.1069647565108894e-01 0.0000000000000000e+00  -7.1077949781691963e-02 -1.1630669706304195e-01 0.0000000000000000e+00  1.0921010620244019e-01 -6.9912920556378530e-02 0.0000000000000000e+00  7.0213312801372343e-02 -1.0890940325919134e-01 0.0000000000000000e+00  -1.0436873994745668e-01 -7.0411158134954341e-02 0.0000000000000000e+00  1.3474883197333126e-01 -5.7843354370893448e-02 0.0000000000000000e+00  -6.9585764451646853e-02 -1.4100345612253343e-01 0.0000000000000000e+00  -3.8938062145181002e-02 1.4105425259212767e-01 0.0000000000000000e+00  4.5951355476610049e-02 1.3713897143367462e-01 0.0000000000000000e+00  8.0861574011810017e-02 -1.1640015917753366e-01 0.0000000000000000e+00  -1.5076351035967983e-01 -5.1009352714847439e-02 0.0000000000000000e+00  9.4793754873792324e-02 5.6744417133268554e-02 0.0000000000000000e+00  1.4415500887471418e-03 -1.2514120441573096e-01 0.0000000000000000e+00  2.8054957322086529e-02 -1.6102190023821922e-01 0.0000000000000000e+00  -9.2416709889998797e-02 5.7733795644406741e-02 0.0000000000000000e+00  -1.1929791151807878e-01 3.4188965906327006e-03 0.0000000000000000e+00  -7.3945387609376370e-02 7.7850363584530596e-02 0.0000000000000000e+00  7.4214951904691379e-02 7.2929330651102867e-02 0.0000000000000000e+00  1.1639835300022409e-01 1.1172797803438274e-03 0.0000000000000000e+00  -7.0665366234506560e-02 9.9998177143877848e-02 0.0000000000000000e+00  7.0440162613476215e-02 1.0114050083704793e-01 0.0000000000000000e+00  -1.2682217910350221e-01 7.5470575381647795e-02 0.0000000000000000e+00  1.3549316385643845e-01 6.8867630684107256e-02 0.0000000000000000e+00  5.3716124975068504e-03 1.2992361300789182e-01 0.0000000000000000e+00  -3.2733441542427362e-02 -1.0504000504280964e-01 0.0000000000000000e+00  -9.3615180221810951e-02 5.3307912061436369e-02 0.0000000000000000e+00  -1.7045926354505401e-03 -2.1713263091586416e-02 0.0000000000000000e+00  1.4589883206380969e-01 -7.4858356375769375e-02 0.0000000000000000e+00  1.5546105084239539e-01 1.3252347093250495e-02 0.0000000000000000e+00  3.7242950424243616e-02 -9.6145917374389905e-02 0.0000000000000000e+00  -1.5446966186800118e-01 1.8787506758401764e-02 0.0000000000000000e+00  7.7833824848757810e-02 -1.4922581753346162e-01 0.0000000000000000e+00  9.8146821622466407e-02 -9.7884171100489220e-02 0.0000000000000000e+00  -9.8461505523767243e-02 -1.0176213796910974e-01 0.0000000000000000e+00  9.1089525712050035e-02 -1.7748627561360392e-02 0.0000000000000000e+00  -9.2496992330532518e-02 -3.8376007436977763e-02 0.0000000000000000e+00  -9.4116573095691755e-02 -1.5575788257725050e-02 0.0000000000000000e+00  -1.4270331871348926e-01 -7.2562430747459397e-02 0.0000000000000000e+00  -8.6815805758573117e-02 1.8493558825355760e-02 0.0000000000000000e+00  4.8048274272763508e-03 -1.6595293554396795e-01 0.0000000000000000e+00  9.6455450023342201e-02 -3.8907919850890670e-02 0.0000000000000000e+00  1.5860318667562232e-01 -2.8497978413017051e-02 0.0000000000000000e+00  2.3938529922169216e-02 6.2646225491186869e-02 0.0000000000000000e+00  -7.5853500569062954e-02 -1.4868519011678238e-01 0.0000000000000000e+00  8.7283155232759035e-02 1.5804384016980002e-02 0.0000000000000000e+00  8.1013554639198973e-02 3.1352448020518446e-02 0.0000000000000000e+00  -6.5434406363385012e-03 1.3545516481503239e-01 0.0000000000000000e+00  8.8522487475806377e-02 1.0099958234760384e-01 0.0000000000000000e+00  -4.5810203744496777e-02 9.7866112214068532e-02 0.0000000000000000e+00  -8.0116670324759443e-02 3.2783684199910047e-02 0.0000000000000000e+00  -1.2581358835096465e-01 7.2126780530712961e-02 0.0000000000000000e+00  5.4422110346200966e-02 7.2217095810690093e-02 0.0000000000000000e+00  5.4675145568141978e-03 1.6692168698399734e-01 0.0000000000000000e+00  1.7646028465645718e-02 -9.4314522914307961e-02 0.0000000000000000e+00  1.0004302717942677e-01 4.6439383163543652e-02 0.0000000000000000e+00  4.7654316353448072e-02 -6.7619227101981635e-02 0.0000000000000000e+00  -1.2400252143581555e-01 -4.6583698387234569e-03 0.0000000000000000e+00  -2.3469860806777910e-02 -1.6349226211314125e-01 0.0000000000000000e+00  -7.5310276099740142e-02 1.2778875479231791e-01 0.0000000000000000e+00  7.7971201239538698e-02 1.1782035686226183e-01 0.0000000000000000e+00  -1.6004761775261561e-01 -1.7195338747926569e-02 0.0000000000000000e+00  -5.6042307900522073e-02 -7.0633673928658366e-02 0.0000000000000000e+00  4.5923814706019120e-03 1.2752468762582442e-01 0.0000000000000000e+00  4.4991079032787935e-02 9.1629466053261083e-02 0.0000000000000000e+00  -5.7432058243123599e-02 -7.0971888626241994e-03 0.0000000000000000e+00  -1.2557202098691769e-01 -8.8014197831159907e-02 0.0000000000000000e+00  -5.8335526623057209e-02 -9.8759717317511639e-02 0.0000000000000000e+00  5.5424913975991308e-02 -6.6085595547643344e-02 0.0000000000000000e+00  -5.1062010415568453e-02 7.1532454592593692e-02 0.0000000000000000e+00  -9.0640672926595722e-02 1.0385377598660618e-01 0.0000000000000000e+00  9.0139976863188059e-02 1.0101485739059286e-01 0.0000000000000000e+00  -6.4306341241302523e-02 -5.8032486562402431e-02 0.0000000000000000e+00  6.4227509324774931e-02 -5.5691633190854913e-02 0.0000000000000000e+00  1.2091076772350128e-01 6.5525358811247728e-02 0.0000000000000000e+00  -2.0875026079321915e-02 1.0377260110756026e-01 0.0000000000000000e+00  -5.2422816316905459e-03 1.1225860437294741e-01 0.0000000000000000e+00  -8.8547268806948784e-02 1.0153967692257225e-01 0.0000000000000000e+00  -4.7634909433773423e-02 9.6554845448147353e-02 0.0000000000000000e+00  1.1662941743294017e-01 -1.0174910941787574e-02 0.0000000000000000e+00  1.2743196660467757e-01 6.4878981739128372e-02 0.0000000000000000e+00  9.6802023495865697e-02 -6.6714567441357689e-02 0.0000000000000000e+00  -3.7583165945082098e-02 -7.7063452311454422e-02 0.0000000000000000e+00  -1.2366593175811734e-02 -8.9324294911954732e-02 0.0000000000000000e+00  3.7155907852399486e-02 -6.7554931594277556e-02 0.0000000000000000e+00  6.4742567205697057e-02 -3.7993037607641937e-02 0.0000000000000000e+00  -6.0829741770802241e-02 5.0129836159379410e-02 0.0000000000000000e+00  5.9585889362723604e-02 4.5859238870319667e-02 0.0000000000000000e+00  -9.6697188392268693e-02 7.9434454681195477e-02 0.0000000000000000e+00  -6.4937922295869602e-02 -3.7734062107955067e-02 0.0000000000000000e+00  -5.4465920049652415e-02 -1.3949254580953466e-01 0.0000000000000000e+00  -1.4585613281656240e-01 5.0515297174518213e-02 0.0000000000000000e+00  1.2651756133421938e-01 -9.4963756376612682e-02 0.0000000000000000e+00  1.3284695511257050e-01 -5.9435653839381611e-02 0.0000000000000000e+00  5.5023653835548060e-02 8.0043480820331844e-02 0.0000000000000000e+00  -6.9318389407352826e-02 5.5045059940693674e-03 0.0000000000000000e+00  -9.6757692712161614e-02 -1.2850483481573957e-01 0.0000000000000000e+00  6.9539288159978618e-02 -1.4056857634925293e-01 0.0000000000000000e+00  -1.4876115356221795e-01 -6.6940558250836264e-03 0.0000000000000000e+00  9.6585971635864798e-02 -1.2481295583726004e-01 0.0000000000000000e+00  -1.2100726508641073e-01 6.0178397236680607e-02 0.0000000000000000e+00  1.3387766413008956e-01 -9.2399719120776325e-02 0.0000000000000000e+00  6.9817276617786042e-02 -4.8251994115372015e-03 0.0000000000000000e+00  -1.2509195109983709e-01 -9.4070306924032551e-02 0.0000000000000000e+00  -1.8579443344270401e-02 -1.3944667132844091e-01 0.0000000000000000e+00  1.5100890120398089e-01 3.9357106243595986e-02 0.0000000000000000e+00  2.0276238816714431e-02 9.1576986618404452e-02 0.0000000000000000e+00  -3.3433328428143595e-02 -1.3589646461998836e-01 0.0000000000000000e+00  -9.8557965945811968e-02 -1.3432611340512982e-01 0.0000000000000000e+00  -1.2839496951464899e-01 2.2178282276299321e-02 0.0000000000000000e+00  2.3792122504855840e-03 -7.0067420475912148e-02 0.0000000000000000e+00  1.4654252638096651e-01 -1.0883503139162771e-02 0.0000000000000000e+00  2.0468693027479192e-02 -1.3917586286884229e-01 0.0000000000000000e+00  1.4516823501245815e-01 -1.9260471012202091e-02 0.0000000000000000e+00  -7.6763771005247311e-02 -3.4199306411855932e-03 0.0000000000000000e+00  4.3530141143124972e-02 1.0537225908209297e-01 0.0000000000000000e+00  6.7317583024883776e-02 3.8498162894064990e-03 0.0000000000000000e+00  1.2827045512176927e-01 1.8591645618928197e-02 0.0000000000000000e+00  6.0398619836860422e-02 1.5275193747946761e-01 0.0000000000000000e+00  -1.5343252142631865e-02 1.1125287533151711e-01 0.0000000000000000e+00  5.2484039751656629e-02 3.1164280947781325e-02 0.0000000000000000e+00  1.1216006071562654e-01 7.8395920581221301e-02 0.0000000000000000e+00  -5.1906179618930647e-02 3.0816932563351593e-02 0.0000000000000000e+00  2.0758960655361727e-03 1.5700132966714012e-01 0.0000000000000000e+00  -2.4815153018297054e-02 -6.9320583344097894e-02 0.0000000000000000e+00  -1.4071537838789538e-01 -8.5967704974826212e-02 0.0000000000000000e+00  -4.3288180838850374e-02 1.6544667588605091e-01 0.0000000000000000e+00  -1.8152484703728981e-02 9.1425777150937332e-02 0.0000000000000000e+00  1.0059384800916579e-01 -1.2848153226416079e-01 0.0000000000000000e+00  4.2941113948285009e-02 -1.1362202136180399e-01 0.0000000000000000e+00  -9.3986164595469851e-02 -1.0904061289730788e-01 0.0000000000000000e+00  -1.5532279247076489e-01 -4.6904143514157115e-02 0.0000000000000000e+00  -1.5289512859224647e-01 -1.4353088218629630e-02 0.0000000000000000e+00  -1.3101802426316020e-01 -4.8086759538137597e-02 0.0000000000000000e+00  6.6522452002903160e-02 1.2377713792307832e-01 0.0000000000000000e+00  -1.1317751064751472e-01 5.4253446459751803e-02 0.0000000000000000e+00  -5.2602676566782802e-02 -1.6027740590254255e-01 0.0000000000000000e+00  -4.1664379045374643e-02 4.9278925204158087e-02 0.0000000000000000e+00  -1.2980582418732586e-01 -5.4121346308769573e-02 0.0000000000000000e+00  -6.9506802729246975e-02 9.3058453821187131e-02 0.0000000000000000e+00  -7.6794159844945531e-02 9.5150944254141223e-02 0.0000000000000000e+00  2.9278970936415918e-02 1.1576001652333266e-01 0.0000000000000000e+00  -6.0395868297469235e-02 -1.6261559872608730e-02 0.0000000000000000e+00  6.1697850134018239e-02 -1.4625072687273818e-01 0.0000000000000000e+00  5.5233474999359117e-03 -1.4529388607662588e-01 0.0000000000000000e+00  3.2020131366082276e-02 -1.6561319233040023e-01 0.0000000000000000e+00  4.1322520852036124e-02 4.6555057824495767e-02 0.0000000000000000e+00  1.1254314205504813e-01 -9.6413446056166099e-02 0.0000000000000000e+00  -6.8243302273423040e-02 3.7109955251568232e-02 0.0000000000000000e+00  3.5320874143604068e-02 7.4899116721978520e-02 0.0000000000000000e+00  9.6824019616666257e-02 8.9461144970340939e-02 0.0000000000000000e+00  5.5878554018774153e-02 -1.9126975928684418e-02 0.0000000000000000e+00  1.4217376563971279e-01 5.2696310538667621e-02 0.0000000000000000e+00  1.1665555626959812e-01 8.9511802930052356e-02 0.0000000000000000e+00  -6.2691379318662560e-02 -5.5310952622152437e-02 0.0000000000000000e+00  5.6293709083520584e-02 1.5638608971771481e-02 0.0000000000000000e+00  -9.3909065201257830e-02 -9.5914727764009472e-03 0.0000000000000000e+00  -3.1940309151480696e-02 6.0103763344826283e-02 0.0000000000000000e+00  3.7146853352552585e-02 6.2508942445762550e-02 0.0000000000000000e+00  1.8388984790228918e-02 -6.3200801813047797e-02 0.0000000000000000e+00  -8.2374288579053004e-02 1.0775653836278722e-