<?xml version="1.0"?>
<VTKFile type="UnstructuredGrid"  version="0.1"  >
<UnstructuredGrid>
<Piece  NumberOfPoints="1890" NumberOfCells="3574">
<Points>
<DataArray  type="Float64"  NumberOfComponents="3"  format="ascii">1 0 0  0.9977668786231532 0.06679263374512155 0  0.9910774881547801 0.1332869553737788 0  0.9799617050365869 0.1991859851038361 0  0.9644691750543766 0.264195401871286 0  0.9446690916079188 0.3280248578395691 0  0.9206498866764288 0.3903892751634948 0  0.8925188358598812 0.4510101192161018 0  0.8604015792601394 0.5096166425919174 0  0.8244415603417603 0.5659470943305952 0  0.784799385278661 0.6197498889602449 0  0.7416521056479576 0.6707847301392235 0  0.6951924276746423 0.7188236838779293 0  0.6456278515588024 0.7636521965473321 0  0.5931797447293553 0.8050700531275629 0  0.5380823531633727 0.842892271416797 0  0.4805817551866838 0.8769499282066715 0  0.420934762428335 0.9070909137343407 0  0.3594077728375128 0.9331806110416025 0  0.2962755808856342 0.9551024972069124 0  0.2318201502675284 0.9727586637650372 0  0.1663293545831299 0.9860702539900286 0  0.1000956916240984 0.994977815088504 0  0.03341497700767464 0.9994415637302546 0  -0.03341497700767452 0.9994415637302546 0  -0.1000956916240983 0.994977815088504 0  -0.16632935458313 0.9860702539900286 0  -0.2318201502675281 0.9727586637650372 0  -0.2962755808856338 0.9551024972069124 0  -0.3594077728375129 0.9331806110416025 0  -0.4209347624283349 0.9070909137343408 0  -0.4805817551866837 0.8769499282066716 0  -0.5380823531633726 0.8428922714167971 0  -0.5931797447293552 0.805070053127563 0  -0.6456278515588024 0.7636521965473321 0  -0.6951924276746423 0.7188236838779293 0  -0.7416521056479576 0.6707847301392235 0  -0.784799385278661 0.6197498889602449 0  -0.8244415603417601 0.5659470943305954 0  -0.8604015792601392 0.5096166425919177 0  -0.8925188358598811 0.4510101192161021 0  -0.9206498866764287 0.3903892751634951 0  -0.9446690916079189 0.3280248578395689 0  -0.9644691750543765 0.2641954018712862 0  -0.9799617050365867 0.1991859851038363 0  -0.99107748815478 0.133286955373779 0  -0.9977668786231532 0.0667926337451217 0  -1 -3.216245299353273e-16 0  -0.9977668786231532 -0.06679263374512145 0  -0.9910774881547801 -0.1332869553737783 0  -0.9799617050365869 -0.1991859851038361 0  -0.9644691750543766 -0.264195401871286 0  -0.9446690916079188 -0.3280248578395691 0  -0.9206498866764288 -0.3903892751634949 0  -0.8925188358598815 -0.4510101192161015 0  -0.8604015792601394 -0.5096166425919175 0  -0.8244415603417605 -0.5659470943305949 0  -0.7847993852786611 -0.6197498889602446 0  -0.7416521056479575 -0.6707847301392236 0  -0.6951924276746424 -0.7188236838779292 0  -0.6456278515588025 -0.7636521965473319 0  -0.593179744729355 -0.8050700531275631 0  -0.5380823531633728 -0.842892271416797 0  -0.4805817551866835 -0.8769499282066716 0  -0.4209347624283351 -0.9070909137343407 0  -0.3594077728375134 -0.9331806110416024 0  -0.296275580885634 -0.9551024972069124 0  -0.2318201502675288 -0.9727586637650371 0  -0.1663293545831301 -0.9860702539900286 0  -0.1000956916240988 -0.994977815088504 0  -0.03341497700767455 -0.9994415637302546 0  0.03341497700767418 -0.9994415637302546 0  0.1000956916240984 -0.994977815088504 0  0.1663293545831297 -0.9860702539900286 0  0.2318201502675284 -0.9727586637650372 0  0.2962755808856337 -0.9551024972069125 0  0.3594077728375122 -0.9331806110416029 0  0.4209347624283348 -0.9070909137343408 0  0.4805817551866832 -0.8769499282066718 0  0.5380823531633725 -0.8428922714167971 0  0.5931797447293548 -0.8050700531275633 0  0.6456278515588023 -0.7636521965473321 0  0.6951924276746418 -0.7188236838779297 0  0.7416521056479575 -0.6707847301392235 0  0.7847993852786612 -0.6197498889602446 0  0.8244415603417603 -0.5659470943305952 0  0.8604015792601392 -0.5096166425919179 0  0.8925188358598808 -0.4510101192161026 0  0.9206498866764287 -0.3903892751634952 0  0.9446690916079188 -0.328024857839569 0  0.9644691750543765 -0.2641954018712863 0  0.9799617050365869 -0.199185985103836 0  0.99107748815478 -0.1332869553737791 0  0.9977668786231532 -0.06679263374512227 0  0.5766044443118978 0.06427876096865393 0  0.6 0 0  0.5766044443118978 -0.06427876096865397 0  0.517364817766693 -0.09848077530122082 0  0.45 -0.08660254037844384 0  0.4060307379214091 -0.03420201433256687 0  0.4060307379214091 0.03420201433256689 0  0.45 0.08660254037844388 0  0.5173648177666931 0.0984807753012208 0  -0.2965686451888956 -3.216245299353273e-16 0  0.02995799338450739 0.4463820650390996 0  0.02995799338450775 -0.4463820650390995 0  -0.3955719483658615 0.4150379846043291 0  -0.4169105514339966 -0.4032046590493156 0  -0.6262911543602625 0.1406750128378851 0  0.4099697941225568 0.4649562806856727 0  0.4099697941225571 -0.4649562806856725 0  0.05127126517818126 0.08817401780249684 0  -0.1831682142260297 -0.6686721086721615 0  -0.1831682142260294 0.6686721086721619 0  -0.6520464330424147 -0.1814832365373373 0  0.2091634468672813 0.6766366337832459 0  0.1883365569596445 -0.6875396105945327 0  0.2159040325791659 -0.2383848214817743 0  -0.1744543149380852 0.2484563274625736 0  -0.06716122455575962 -0.1748068953293204 0  0.2513036159616241 0.2568747514607447 0  0.6477088057990819 -0.3356515765545967 0  0.6477088057990816 0.3356515765545969 0  -0.6429348001755962 0.3888615828205575 0  -0.4176911395802332 -0.639529979133491 0  -0.6487907438517166 -0.4141725603623674 0  -0.4382859878713386 0.638471665172117 0  -0.1883060146004528 -0.3712832336183189 0  -0.4093410988944064 0.1924263534676403 0  0.7784262897673441 0.1313041761919452 0  0.7692266286696862 -0.1588101168391893 0  -0.3273037620396328 -0.2103878546156154 0  -0.1798454764806241 0.458542771899162 0  0.4017553023960708 -0.6784121172515977 0  -0.7833260349743965 -0.008879310202590557 0  -0.4794205971237819 -0.08072648637784163 0  0.4174224539707952 0.6731117436251652 0  0.01086072875173043 0.7779172259216657 0  0.5993482410529842 0.529941331081667 0  0.5800727149699484 -0.5610028828936883 0  -0.002913066865704084 -0.7863475463243047 0  0.4644692980420977 0.281953550413786 0  0.4644692980420981 -0.281953550413786 0  0.2204900511885566 0.4449044634307799 0  0.2180189937406393 -0.4954600835645215 0  0.2060327886352148 -0.03858259979572255 0  -0.7808481637664745 0.2422213783127347 0  0.06990549121986947 0.2690208389553115 0  -0.1124194025531066 0.00373323440863213 0  -0.2838372182411008 -0.5216724848805774 0  0.03130371177689495 -0.6180840640285581 0  -0.7762218745645899 -0.2989562490519654 0  0.05214597457400483 0.613977754767665 0  -0.4956543915012957 -0.251170934148539 0  -0.5275381827985767 -0.5210032025475994 0  -0.5301696116286927 0.5051064981533095 0  -0.16809888692682 -0.8270183856644552 0  -0.3240121076586466 0.7657967722683376 0  -0.1438288839385778 0.8257307941019953 0  -0.2998557134907758 0.5617360107302967 0  0.1684367173033988 0.8286804545679113 0  -0.6250110225296729 -0.01789111552180164 0  -0.3137113036339798 -0.7609856814941814 0  -0.1170075000122383 -0.518790272865666 0  0.05108989091758273 -0.06990257622780319 0  -0.5427150590508653 0.270931066435428 0  0.1429967624415053 -0.8342737229435346 0  0.2997239097253987 -0.7923562376371267 0  0.2676893696803808 0.1031671400466477 0  0.3261287713905652 -0.3403712992466087 0  0.7950089908879098 0.2858943947941835 0  0.3151824699376609 0.7865115564528017 0  0.3115634426834656 0.5726907027982669 0  0.704039443019545 -0.4753841151972395 0  0.7470219429290336 -0.01290298646666185 0  -0.8321235529347469 -0.1551998530807213 0  0.05709269783870959 -0.2835250962999872 0  -0.2021447182543711 -0.1140175740005167 0  -0.05854661192244001 0.3332686099592011 0  -0.4944752806394075 0.06870205217856792 0  0.6465785626300955 0.1909460270059954 0  0.6150172073263744 -0.1992156468339642 0  -0.08321382237958147 0.5651617303365446 0  -0.6720985235143602 0.5299695767353035 0  0.3081627102340266 -0.1336818188805801 0  0.7954182263431147 -0.306979485853048 0  -0.0801862748968569 0.1421281857867356 0  -0.2704290205461716 0.3511058548763765 0  -0.2733876063765904 0.1428439818287992 0  -0.6630142665634642 -0.5525422555121322 0  0.7250705628492369 0.4580712316052048 0  0.5291222693526491 0.4008241947929737 0  0.543461903937986 -0.42718897847992 0  -0.5796080761878384 0.6375025331582558 0  -0.5686737890628571 -0.6510435601866913 0  0.1471374478051752 -0.382217095965624 0  0.367570301927055 0.1909193223550535 0  0.8716954478736112 0.02914395839180125 0  0.3487459623057126 0.3471068582357988 0  0.1543099947611301 0.1689404724154097 0  -0.07297109638128209 -0.3068109338541753 0  0.2917188534562402 -0.6051822784871949 0  -0.2024804285799746 -0.2430406644266693 0  -0.7781944430042567 0.3778986247265116 0  -0.8494742869240901 0.1173360134018405 0  -0.7720870174071235 -0.4231153023082534 0  -0.449110317890587 -0.7582468751604555 0  0.5545923664877855 0.6602415200552888 0  0.5344562863167422 -0.6858381270857777 0  0.4766344790775262 0.566780609122759 0  -0.445772660902635 0.7601337067632379 0  -0.6616262409933745 0.2552874992358464 0  0.1653545872376546 0.5583524484327292 0  -0.4028773004059317 -0.5214149604035093 0  -0.2990776467406227 -0.6432205051811133 0  0.1120905589734103 -0.1750840530986415 0  0.06398953478431954 0.8829484618446889 0  -0.5251433924072202 0.3874134656159851 0  -0.6099143365137073 -0.2972611803339155 0  -0.04678747567896177 0.6762313351705379 0  -0.533024901227188 -0.4050045909030676 0  0.1246725721343765 0.3745355098341986 0  -0.3000083100373507 -0.4058635916290634 0  -0.06655528087218812 -0.8836517798731542 0  -0.4088769106504622 0.5282941447433156 0  -0.7345489526308654 0.09712579222418664 0  0.1081465349890011 -0.5316255335782825 0  0.8804353520695445 -0.1485109638682795 0  -0.3713419913383989 0.08543731094255294 0  -0.43252237558797 0.3055918258709063 0  0.1125429094389743 0.7322321616258178 0  -0.8927041854393205 -0.02984635711944513 0  -0.06589562952638969 -0.6859291199262957 0  -0.7331201394770802 -0.1069200385835311 0  -0.08867729710384351 -0.414111852980487 0  -0.0447872543388
[...]
<PointData  Vectors="f_25"> 
<DataArray  type="Float64"  Name="f_25"  NumberOfComponents="3" format="ascii">0.0000000000000000e+00 0.0000000000000000e+00 0.0000000000000000e+00  0.0000000000000000e+00 0.0000000000000000e+00 0.0000000000000000e+00  0.0000000000000000e+00 0.0000000000000000e+00 0.0000000000000000e+00  0.0000000000000000e+00 0.0000000000000000e+00 0.0000000000000000e+00  0.0000000000000000e+00 0.0000000000000000e+00 0.0000000000000000e+00  0.0000000000000000e+00 0.0000000000000000e+00 0.0000000000000000e+00  0.0000000000000000e+00 0.0000000000000000e+00 0.0000000000000000e+00  0.0000000000000000e+00 0.0000000000000000e+00 0.0000000000000000e+00  0.0000000000000000e+00 0.0000000000000000e+00 0.0000000000000000e+00  0.0000000000000000e+00 0.0000000000000000e+00 0.0000000000000000e+00  0.0000000000000000e+00 0.0000000000000000e+00 0.0000000000000000e+00  0.0000000000000000e+00 0.0000000000000000e+00 0.0000000000000000e+00  0.0000000000000000e+00 0.0000000000000000e+00 0.0000000000000000e+00  0.0000000000000000e+00 0.0000000000000000e+00 0.0000000000000000e+00  0.0000000000000000e+00 0.0000000000000000e+00 0.0000000000000000e+00  0.0000000000000000e+00 0.0000000000000000e+00 0.0000000000000000e+00  0.0000000000000000e+00 0.0000000000000000e+00 0.0000000000000000e+00  0.0000000000000000e+00 0.0000000000000000e+00 0.0000000000000000e+00  0.0000000000000000e+00 0.0000000000000000e+00 0.0000000000000000e+00  0.0000000000000000e+00 0.0000000000000000e+00 0.0000000000000000e+00  0.0000000000000000e+00 0.0000000000000000e+00 0.0000000000000000e+00  0.0000000000000000e+00 0.0000000000000000e+00 0.0000000000000000e+00  0.0000000000000000e+00 0.0000000000000000e+00 0.0000000000000000e+00  0.0000000000000000e+00 0.0000000000000000e+00 0.0000000000000000e+00  0.0000000000000000e+00 0.0000000000000000e+00 0.0000000000000000e+00  0.0000000000000000e+00 0.0000000000000000e+00 0.0000000000000000e+00  0.0000000000000000e+00 0.0000000000000000e+00 0.0000000000000000e+00  0.0000000000000000e+00 0.0000000000000000e+00 0.0000000000000000e+00  0.0000000000000000e+00 0.0000000000000000e+00 0.0000000000000000e+00  0.0000000000000000e+00 0.0000000000000000e+00 0.0000000000000000e+00  0.0000000000000000e+00 0.0000000000000000e+00 0.0000000000000000e+00  0.0000000000000000e+00 0.0000000000000000e+00 0.0000000000000000e+00  0.0000000000000000e+00 0.0000000000000000e+00 0.0000000000000000e+00  0.0000000000000000e+00 0.0000000000000000e+00 0.0000000000000000e+00  0.0000000000000000e+00 0.0000000000000000e+00 0.0000000000000000e+00  0.0000000000000000e+00 0.0000000000000000e+00 0.0000000000000000e+00  0.0000000000000000e+00 0.0000000000000000e+00 0.0000000000000000e+00  0.0000000000000000e+00 0.0000000000000000e+00 0.0000000000000000e+00  0.0000000000000000e+00 0.0000000000000000e+00 0.0000000000000000e+00  0.0000000000000000e+00 0.0000000000000000e+00 0.0000000000000000e+00  0.0000000000000000e+00 0.0000000000000000e+00 0.0000000000000000e+00  0.0000000000000000e+00 0.0000000000000000e+00 0.0000000000000000e+00  0.0000000000000000e+00 0.0000000000000000e+00 0.0000000000000000e+00  0.0000000000000000e+00 0.0000000000000000e+00 0.0000000000000000e+00  0.0000000000000000e+00 0.0000000000000000e+00 0.0000000000000000e+00  0.0000000000000000e+00 0.0000000000000000e+00 0.0000000000000000e+00  0.0000000000000000e+00 0.0000000000000000e+00 0.0000000000000000e+00  0.0000000000000000e+00 0.0000000000000000e+00 0.0000000000000000e+00  0.0000000000000000e+00 0.0000000000000000e+00 0.0000000000000000e+00  0.0000000000000000e+00 0.0000000000000000e+00 0.0000000000000000e+00  0.0000000000000000e+00 0.0000000000000000e+00 0.0000000000000000e+00  0.0000000000000000e+00 0.0000000000000000e+00 0.0000000000000000e+00  0.0000000000000000e+00 0.0000000000000000e+00 0.0000000000000000e+00  0.0000000000000000e+00 0.0000000000000000e+00 0.0000000000000000e+00  0.0000000000000000e+00 0.0000000000000000e+00 0.0000000000000000e+00  0.0000000000000000e+00 0.0000000000000000e+00 0.0000000000000000e+00  0.0000000000000000e+00 0.0000000000000000e+00 0.0000000000000000e+00  0.0000000000000000e+00 0.0000000000000000e+00 0.0000000000000000e+00  0.0000000000000000e+00 0.0000000000000000e+00 0.0000000000000000e+00  0.0000000000000000e+00 0.0000000000000000e+00 0.0000000000000000e+00  0.0000000000000000e+00 0.0000000000000000e+00 0.0000000000000000e+00  0.0000000000000000e+00 0.0000000000000000e+00 0.0000000000000000e+00  0.0000000000000000e+00 0.0000000000000000e+00 0.0000000000000000e+00  0.0000000000000000e+00 0.0000000000000000e+00 0.0000000000000000e+00  0.0000000000000000e+00 0.0000000000000000e+00 0.0000000000000000e+00  0.0000000000000000e+00 0.0000000000000000e+00 0.0000000000000000e+00  0.0000000000000000e+00 0.0000000000000000e+00 0.0000000000000000e+00  0.0000000000000000e+00 0.0000000000000000e+00 0.0000000000000000e+00  0.0000000000000000e+00 0.0000000000000000e+00 0.0000000000000000e+00  0.0000000000000000e+00 0.0000000000000000e+00 0.0000000000000000e+00  0.0000000000000000e+00 0.0000000000000000e+00 0.0000000000000000e+00  0.0000000000000000e+00 0.0000000000000000e+00 0.0000000000000000e+00  0.0000000000000000e+00 0.0000000000000000e+00 0.0000000000000000e+00  0.0000000000000000e+00 0.0000000000000000e+00 0.0000000000000000e+00  0.0000000000000000e+00 0.0000000000000000e+00 0.0000000000000000e+00  0.0000000000000000e+00 0.0000000000000000e+00 0.0000000000000000e+00  0.0000000000000000e+00 0.0000000000000000e+00 0.0000000000000000e+00  0.0000000000000000e+00 0.0000000000000000e+00 0.0000000000000000e+00  0.0000000000000000e+00 0.0000000000000000e+00 0.0000000000000000e+00  0.0000000000000000e+00 0.0000000000000000e+00 0.0000000000000000e+00  0.0000000000000000e+00 0.0000000000000000e+00 0.0000000000000000e+00  0.0000000000000000e+00 0.0000000000000000e+00 0.0000000000000000e+00  0.0000000000000000e+00 0.0000000000000000e+00 0.0000000000000000e+00  0.0000000000000000e+00 0.0000000000000000e+00 0.0000000000000000e+00  0.0000000000000000e+00 0.0000000000000000e+00 0.0000000000000000e+00  0.0000000000000000e+00 0.0000000000000000e+00 0.0000000000000000e+00  0.0000000000000000e+00 0.0000000000000000e+00 0.0000000000000000e+00  0.0000000000000000e+00 0.0000000000000000e+00 0.0000000000000000e+00  0.0000000000000000e+00 0.0000000000000000e+00 0.0000000000000000e+00  0.0000000000000000e+00 0.0000000000000000e+00 0.0000000000000000e+00  0.0000000000000000e+00 0.0000000000000000e+00 0.0000000000000000e+00  0.0000000000000000e+00 0.0000000000000000e+00 0.0000000000000000e+00  0.0000000000000000e+00 0.0000000000000000e+00 0.0000000000000000e+00  0.0000000000000000e+00 0.0000000000000000e+00 0.0000000000000000e+00  0.0000000000000000e+00 0.0000000000000000e+00 0.0000000000000000e+00  0.0000000000000000e+00 0.0000000000000000e+00 0.0000000000000000e+00  0.0000000000000000e+00 0.0000000000000000e+00 0.0000000000000000e+00  0.0000000000000000e+00 0.0000000000000000e+00 0.0000000000000000e+00  0.0000000000000000e+00 0.0000000000000000e+00 0.0000000000000000e+00  0.0000000000000000e+00 0.0000000000000000e+00 0.0000000000000000e+00  0.0000000000000000e+00 0.0000000000000000e+00 0.0000000000000000e+00  0.0000000000000000e+00 0.0000000000000000e+00 0.0000000000000000e+00  0.0000000000000000e+00 0.0000000000000000e+00 0.0000000000000000e+00  -7.7048998877408834e-06 -5.8013863405839319e-02 0.0000000000000000e+00  -7.7436863171863587e-02 1.7213382160132174e-02 0.0000000000000000e+00  7.7470954528990013e-02 1.7182167026388331e-02 0.0000000000000000e+00  -6.8033405707609296e-02 -6.0665598432464204e-02 0.0000000000000000e+00  6.5385333284080430e-02 -6.3646285115756152e-02 0.0000000000000000e+00  -2.0128696564216886e-02 -8.7229412598195791e-02 0.0000000000000000e+00  -5.2673365269879029e-02 4.7032900981467202e-02 0.0000000000000000e+00  5.2686362516276564e-02 4.7097417062080933e-02 0.0000000000000000e+00  -1.4812874344973016e-02 4.7174075210375040e-02 0.0000000000000000e+00  7.5246783832448830e-02 -1.7965965723957134e-02 0.0000000000000000e+00  -7.5251458235411406e-02 -1.7957180599672523e-02 0.0000000000000000e+00  2.3399447708550795e-02 -8.2188463233755352e-02 0.0000000000000000e+00  -6.4723687624758192e-02 2.2952656112498693e-02 0.0000000000000000e+00  6.5183626486244331e-02 2.0716249344409424e-02 0.0000000000000000e+00  2.6544203162866129e-02 6.0398183060527737e-02 0.0000000000000000e+00  -5.5072853263490887e-02 -2.4516797330901050e-02 0.0000000000000000e+00  3.7392508092693344e-02 8.4343478911037915e-03 0.0000000000000000e+00  -2.7013457668868382e-02 5.9163832282320299e-02 0.0000000000000000e+00  4.1869243949267491e-02 5.2649188309570723e-02 0.0000000000000000e+00  -4.1890840415372964e-02 5.2580013466446363e-02 0.0000000000000000e+00  -3.7762082629600215e-02 -6.1293151669842845e-02 0.0000000000000000e+00  5.6896283908283336e-02 -3.5892077304908170e-02 0.0000000000000000e+00  3.7009704644260691e-02 -5.6993266190017211e-02 0.0000000000000000e+00  -5.4198534922137553e-02 -3.6075623055599824e-02 0.0000000000000000e+00  7.4724198295139224e-02 -2.8011077069532504e-02 0.0000000000000000e+00  -3.9495048915704642e-02 -7.7415529821734066e-02 0.0000000000000000e+00  -2.3032245075739269e-02 7.5215740363507172e-02 0.0000000000000000e+00  2.6991253632600784e-02 7.2413370584335945e-02 0.0000000000000000e+00  4.5880610433841076e-02 -6.2471121344120591e-02 0.0000000000000000e+00  -8.2854508476764829e-02 -2.4950577004516493e-02 0.0000000000000000e+00  4.4802466300432643e-02 2.7292245817488296e-02 0.0000000000000000e+00  7.5441728009808509e-04 -6.5671187851063836e-02 0.0000000000000000e+00  1.5943214108735653e-02 -8.9288920574127545e-02 0.0000000000000000e+00  -4.3605846167118267e-02 2.7639583605200874e-02 0.0000000000000000e+00  -5.9389755679299557e-02 2.4160875082356171e-03 0.0000000000000000e+00  -3.5816082367526939e-02 3.6280602166173577e-02 0.0000000000000000e+00  3.5462560330830915e-02 3.3874139490584300e-02 0.0000000000000000e+00  5.7807783241221135e-02 1.2344287714668670e-03 0.0000000000000000e+00  -3.3869114329939970e-02 4.3921196594133079e-02 0.0000000000000000e+00  3.3811879570046520e-02 4.4082131906058489e-02 0.0000000000000000e+00  -6.3223355956282992e-02 4.2798097408383196e-02 0.0000000000000000e+00  6.8051753639023937e-02 3.8615085048378218e-02 0.0000000000000000e+00  1.0632975040019660e-03 8.0521019496526583e-02 0.0000000000000000e+00  -1.6986595105455294e-02 -5.4216631141012106e-02 0.0000000000000000e+00  -4.7207073695301312e-02 3.8016774861719171e-02 0.0000000000000000e+00  -8.6447462682461744e-04 -2.5228853245166014e-03 0.0000000000000000e+00  7.9602253080319513e-02 -3.9054954290455766e-02 0.0000000000000000e+00  8.0984776407390643e-02 9.1788177854768716e-03 0.0000000000000000e+00  1.9157688714976608e-02 -4.9260039308480094e-02 0.0000000000000000e+00  -8.0313574269452501e-02 1.2073479768782447e-02 0.0000000000000000e+00  4.3618799573687396e-02 -8.2008605701180584e-02 0.0000000000000000e+00  5.2004721334537048e-02 -5.1282859133439350e-02 0.0000000000000000e+00  -5.2377458279691258e-02 -5.3512824786378130e-02 0.0000000000000000e+00  4.4716850193307900e-02 -8.4126620679653204e-03 0.0000000000000000e+00  -4.6314277873156784e-02 -1.8901743778605894e-02 0.0000000000000000e+00  -4.6245285736937480e-02 -7.3126410610319806e-03 0.0000000000000000e+00  -7.7095674418178772e-02 -3.7808246970097638e-02 0.0000000000000000e+00  -4.1052390580472262e-02 9.1358957382011701e-03 0.0000000000000000e+00  2.6778854925819410e-03 -9.1072384643406237e-02 0.0000000000000000e+00  4.8475912342670166e-02 -1.9213343760340881e-02 0.0000000000000000e+00  8.5846342108708368e-02 -1.2501738741876160e-02 0.0000000000000000e+00  1.1603643530838119e-02 4.7887727158020872e-02 0.0000000000000000e+00  -4.2120587545065445e-02 -8.1303262452172564e-02 0.0000000000000000e+00  4.1363258404433501e-02 7.8720895411482240e-03 0.0000000000000000e+00  3.7627545582483359e-02 1.4941609733018816e-02 0.0000000000000000e+00  2.0620058136213769e-03 7.6075234067694647e-02 0.0000000000000000e+00  4.0448867473883904e-02 5.2459427377998136e-02 0.0000000000000000e+00  -2.5594935817556858e-02 5.0178355497147512e-02 0.0000000000000000e+00  -3.7168707040325454e-02 1.5578740797229216e-02 0.0000000000000000e+00  -6.2124392380752819e-02 3.7397900317836373e-02 0.0000000000000000e+00  2.7001349927339515e-02 3.3868729676579529e-02 0.0000000000000000e+00  3.2265474288571067e-03 8.6578734871440827e-02 0.0000000000000000e+00  9.0377936125583865e-03 -4.8092323185596010e-02 0.0000000000000000e+00  5.1058747613692862e-02 3.4078525982425403e-02 0.0000000000000000e+00  2.6744704942867056e-02 -3.1585271851517216e-02 0.0000000000000000e+00  -6.7090039634525214e-02 3.9153912600918663e-03 0.0000000000000000e+00  -1.3310738173578213e-02 -9.0705189623872737e-02 0.0000000000000000e+00  -4.2049046951549818e-02 5.9418588090417772e-02 0.0000000000000000e+00  4.2685861579774650e-02 5.2295466700803518e-02 0.0000000000000000e+00  -8.5679157155345922e-02 -6.7028066272171961e-03 0.0000000000000000e+00  -2.8294407438988884e-02 -3.5500194898925634e-02 0.0000000000000000e+00  -3.9095369780899345e-03 6.6638957434253215e-02 0.0000000000000000e+00  2.4838085496635531e-02 4.6725245002115917e-02 0.0000000000000000e+00  -3.0953785112116560e-02 5.6382120890080406e-03 0.0000000000000000e+00  -7.0296098660675072e-02 -4.6045382808275227e-02 0.0000000000000000e+00  -3.3040139361938149e-02 -5.1289715787730464e-02 0.0000000000000000e+00  2.7855484020042332e-02 -3.3073306867948842e-02 0.0000000000000000e+00  -2.5514195135077258e-02 3.3769960907125557e-02 0.0000000000000000e+00  -4.5855689536120549e-02 4.8592429673864714e-02 0.0000000000000000e+00  4.5471843000987590e-02 4.7466675410302715e-02 0.0000000000000000e+00  -3.2196787588416820e-02 -2.8891671018296136e-02 0.0000000000000000e+00  3.2092302746099123e-02 -2.7663826810832882e-02 0.0000000000000000e+00  6.0626835102534381e-02 4.0613807776140813e-02 0.0000000000000000e+00  -4.8452326671555744e-03 4.9031804461284703e-02 0.0000000000000000e+00  -3.0813382273358549e-03 6.2367233211334840e-02 0.0000000000000000e+00  -4.0975928781819236e-02 5.1657532547955382e-02 0.0000000000000000e+00  -2.0128528475348021e-02 6.2697335912967278e-02 0.0000000000000000e+00  6.3284530339056858e-02 1.3193472318561291e-03 0.0000000000000000e+00  6.2883395221716085e-02 3.3687827771687363e-02 0.0000000000000000e+00  5.4160129100099728e-02 -3.2057046731579074e-02 0.0000000000000000e+00  -1.8976644593096864e-02 -3.8772609027195079e-02 0.0000000000000000e+00  -6.3004365674089570e-03 -4.5306619842177827e-02 0.0000000000000000e+00  1.8590897404966712e-02 -3.3685627500874657e-02 0.0000000000000000e+00  3.1786101703004707e-02 -1.8515558063354243e-02 0.0000000000000000e+00  -2.7734793053406485e-02 2.2743329566746601e-02 0.0000000000000000e+00  2.6950094485068802e-02 2.0728745024504627e-02 0.0000000000000000e+00  -4.6612643567466590e-02 3.8149325973389429e-02 0.0000000000000000e+00  -3.1874012161793711e-02 -1.8380397689907152e-02 0.0000000000000000e+00  -2.9456660782347821e-02 -7.4809862674884542e-02 0.0000000000000000e+00  -7.4498385213668888e-02 2.8852964377769266e-02 0.0000000000000000e+00  6.8487467246606801e-02 -5.0259737335146049e-02 0.0000000000000000e+00  7.0100645028178837e-02 -3.0456762065868722e-02 0.0000000000000000e+00  2.5422454787540513e-02 5.4978152166345898e-02 0.0000000000000000e+00  -3.2450917796499147e-02 2.7760739759408442e-03 0.0000000000000000e+00  -5.2927553875571888e-02 -6.9288465382851133e-02 0.0000000000000000e+00  3.7914726012845672e-02 -7.5833879335471255e-02 0.0000000000000000e+00  -7.7293309472183117e-02 -2.0304326040485520e-03 0.0000000000000000e+00  5.2599058396591541e-02 -6.7020947999634400e-02 0.0000000000000000e+00  -6.1283851738250905e-02 3.8278685367020227e-02 0.0000000000000000e+00  7.4516493758732025e-02 -4.8881055770515137e-02 0.0000000000000000e+00  3.3122561519052657e-02 -2.1120081537659065e-03 0.0000000000000000e+00  -6.7544509420826848e-02 -4.9759832217293770e-02 0.0000000000000000e+00  -9.9719675126992095e-03 -7.4276311976347223e-02 0.0000000000000000e+00  7.8167157854033095e-02 2.4110608957078020e-02 0.0000000000000000e+00  1.1528265746226471e-02 4.9802232569720599e-02 0.0000000000000000e+00  -1.9060953820524817e-02 -7.4186225781229478e-02 0.0000000000000000e+00  -5.5282555108991528e-02 -7.3404786517456758e-02 0.0000000000000000e+00  -6.4029829549043071e-02 1.2138573738410785e-02 0.0000000000000000e+00  1.1753149886050828e-03 -3.4884092618912392e-02 0.0000000000000000e+00  7.6041165133918343e-02 -4.2843478177405584e-03 0.0000000000000000e+00  1.0977528377413556e-02 -7.4136078842519271e-02 0.0000000000000000e+00  7.9011453471411683e-02 -5.8155833345561554e-03 0.0000000000000000e+00  -3.6624361741672239e-02 -1.3963856892719186e-03 0.0000000000000000e+00  1.5704463573783863e-02 5.0732979243742538e-02 0.0000000000000000e+00  3.1493155593109522e-02 1.9879991631493012e-03 0.0000000000000000e+00  6.3996355892964443e-02 1.0322061709716295e-02 0.0000000000000000e+00  3.1920076890413096e-02 7.1513124267937614e-02 0.0000000000000000e+00  -5.3287813426314851e-03 7.2863382762901871e-02 0.0000000000000000e+00  2.3323188549421545e-02 1.3964056318597918e-02 0.0000000000000000e+00  5.4558264272887937e-02 3.8917276667889966e-02 0.0000000000000000e+00  -2.3068893277156985e-02 1.3808783968905891e-02 0.0000000000000000e+00  9.4161691294631820e-04 7.9966345635400796e-02 0.0000000000000000e+00  -1.3883280498288523e-02 -3.2446194003438185e-02 0.0000000000000000e+00  -7.7743355699341959e-02 -4.5321050164888813e-02 0.0000000000000000e+00  -2.3192264322306512e-02 7.7141228939100623e-02 0.0000000000000000e+00  -1.0376709345559856e-02 4.9889262925486927e-02 0.0000000000000000e+00  5.6634317828486151e-02 -6.9981945388844877e-02 0.0000000000000000e+00  2.4428874848959628e-02 -6.0338977862567401e-02 0.0000000000000000e+00  -5.3157016685107077e-02 -5.8188211388917652e-02 0.0000000000000000e+00  -8.3886889542039683e-02 -2.3357141036730023e-02 0.0000000000000000e+00  -8.2835359939423481e-02 -3.7927874346556103e-03 0.0000000000000000e+00  -7.2533939126032940e-02 -2.2097037887061730e-02 0.0000000000000000e+00  3.8337113756208324e-02 6.1704707280463796e-02 0.0000000000000000e+00  -5.4806360766877789e-02 2.7226251150956171e-02 0.0000000000000000e+00  -2.9576981316984444e-02 -8.8504942255202348e-02 0.0000000000000000e+00  -1.9348034440604435e-02 2.2263667103028344e-02 0.0000000000000000e+00  -6.8004780781972210e-02 -2.7533585275779496e-02 0.0000000000000000e+00  -3.5389371344893152e-02 3.6494819590967266e-02 0.0000000000000000e+00  -3.9244176945315921e-02 4.4895053870180654e-02 0.0000000000000000e+00  9.6900189005473779e-03 7.1342285368146310e-02 0.0000000000000000e+00  -2.8833797149058527e-02 -7.6454105665444789e-03 0.0000000000000000e+00  3.5041434424848569e-02 -8.0512613600688371e-02 0.0000000000000000e+00  3.1891538897655617e-03 -7.9911728941348667e-02 0.0000000000000000e+00  1.7919325560319159e-02 -9.1286973166552834e-02 0.0000000000000000e+00  1.8991405756318816e-02 2.0913958974701476e-02 0.0000000000000000e+00  6.3313650535515312e-02 -5.0724323316348359e-02 0.0000000000000000e+00  -3.4945775571271882e-02 3.1231765497145448e-02 0.0000000000000000e+00  1.5853656573178807e-02 2.6924623792853573e-02 0.0000000000000000e+00  4.7310192034790713e-02 4.2783619105252177e-02 0.0000000000000000e+00  2.6697147792872817e-02 -9.0524780047771675e-03 0.0000000000000000e+00  7.1850365586013112e-02 2.9106192233535996e-02 0.0000000000000000e+00  5.6782983781452634e-02 4.7325582467547006e-02 0.0000000000000000e+00  -3.4925754148155373e-02 -2.4245429134361396e-02 0.0000000000000000e+00  2.5515060396777301e-02 7.2430311880964946e-03 0.0000000000000000e+00  -5.0886392420048311e-02 2.6559131904011581e-03 0.0000000000000000e+00  -1.6384738859918660e-02 2.9438524444029765e-02 0.0000000000000000e+00  1.8868137245410085e-02 3.0155923684062013e-02 0.0000000000000000e+00  9.1172487283147415e-03 -3.1290734800595035e-02 0.0000000000000000e+00  -4.3364011675961975e-02 4.8293669535919445e-02 0.