<?xml version="1.0"?>
<VTKFile type="UnstructuredGrid"  version="0.1"  >
<UnstructuredGrid>
<Piece  NumberOfPoints="1890" NumberOfCells="3574">
<Points>
<DataArray  type="Float64"  NumberOfComponents="3"  format="ascii">1 0 0  0.9977668786231532 0.06679263374512155 0  0.9910774881547801 0.1332869553737788 0  0.9799617050365869 0.1991859851038361 0  0.9644691750543766 0.264195401871286 0  0.9446690916079188 0.3280248578395691 0  0.9206498866764288 0.3903892751634948 0  0.8925188358598812 0.4510101192161018 0  0.8604015792601394 0.5096166425919174 0  0.8244415603417603 0.5659470943305952 0  0.784799385278661 0.6197498889602449 0  0.7416521056479576 0.6707847301392235 0  0.6951924276746423 0.7188236838779293 0  0.6456278515588024 0.7636521965473321 0  0.5931797447293553 0.8050700531275629 0  0.5380823531633727 0.842892271416797 0  0.4805817551866838 0.8769499282066715 0  0.420934762428335 0.9070909137343407 0  0.3594077728375128 0.9331806110416025 0  0.2962755808856342 0.9551024972069124 0  0.2318201502675284 0.9727586637650372 0  0.1663293545831299 0.9860702539900286 0  0.1000956916240984 0.994977815088504 0  0.03341497700767464 0.9994415637302546 0  -0.03341497700767452 0.9994415637302546 0  -0.1000956916240983 0.994977815088504 0  -0.16632935458313 0.9860702539900286 0  -0.2318201502675281 0.9727586637650372 0  -0.2962755808856338 0.9551024972069124 0  -0.3594077728375129 0.9331806110416025 0  -0.4209347624283349 0.9070909137343408 0  -0.4805817551866837 0.8769499282066716 0  -0.5380823531633726 0.8428922714167971 0  -0.5931797447293552 0.805070053127563 0  -0.6456278515588024 0.7636521965473321 0  -0.6951924276746423 0.7188236838779293 0  -0.7416521056479576 0.6707847301392235 0  -0.784799385278661 0.6197498889602449 0  -0.8244415603417601 0.5659470943305954 0  -0.8604015792601392 0.5096166425919177 0  -0.8925188358598811 0.4510101192161021 0  -0.9206498866764287 0.3903892751634951 0  -0.9446690916079189 0.3280248578395689 0  -0.9644691750543765 0.2641954018712862 0  -0.9799617050365867 0.1991859851038363 0  -0.99107748815478 0.133286955373779 0  -0.9977668786231532 0.0667926337451217 0  -1 -3.216245299353273e-16 0  -0.9977668786231532 -0.06679263374512145 0  -0.9910774881547801 -0.1332869553737783 0  -0.9799617050365869 -0.1991859851038361 0  -0.9644691750543766 -0.264195401871286 0  -0.9446690916079188 -0.3280248578395691 0  -0.9206498866764288 -0.3903892751634949 0  -0.8925188358598815 -0.4510101192161015 0  -0.8604015792601394 -0.5096166425919175 0  -0.8244415603417605 -0.5659470943305949 0  -0.7847993852786611 -0.6197498889602446 0  -0.7416521056479575 -0.6707847301392236 0  -0.6951924276746424 -0.7188236838779292 0  -0.6456278515588025 -0.7636521965473319 0  -0.593179744729355 -0.8050700531275631 0  -0.5380823531633728 -0.842892271416797 0  -0.4805817551866835 -0.8769499282066716 0  -0.4209347624283351 -0.9070909137343407 0  -0.3594077728375134 -0.9331806110416024 0  -0.296275580885634 -0.9551024972069124 0  -0.2318201502675288 -0.9727586637650371 0  -0.1663293545831301 -0.9860702539900286 0  -0.1000956916240988 -0.994977815088504 0  -0.03341497700767455 -0.9994415637302546 0  0.03341497700767418 -0.9994415637302546 0  0.1000956916240984 -0.994977815088504 0  0.1663293545831297 -0.9860702539900286 0  0.2318201502675284 -0.9727586637650372 0  0.2962755808856337 -0.9551024972069125 0  0.3594077728375122 -0.9331806110416029 0  0.4209347624283348 -0.9070909137343408 0  0.4805817551866832 -0.8769499282066718 0  0.5380823531633725 -0.8428922714167971 0  0.5931797447293548 -0.8050700531275633 0  0.6456278515588023 -0.7636521965473321 0  0.6951924276746418 -0.7188236838779297 0  0.7416521056479575 -0.6707847301392235 0  0.7847993852786612 -0.6197498889602446 0  0.8244415603417603 -0.5659470943305952 0  0.8604015792601392 -0.5096166425919179 0  0.8925188358598808 -0.4510101192161026 0  0.9206498866764287 -0.3903892751634952 0  0.9446690916079188 -0.328024857839569 0  0.9644691750543765 -0.2641954018712863 0  0.9799617050365869 -0.199185985103836 0  0.99107748815478 -0.1332869553737791 0  0.9977668786231532 -0.06679263374512227 0  0.5766044443118978 0.06427876096865393 0  0.6 0 0  0.5766044443118978 -0.06427876096865397 0  0.517364817766693 -0.09848077530122082 0  0.45 -0.08660254037844384 0  0.4060307379214091 -0.03420201433256687 0  0.4060307379214091 0.03420201433256689 0  0.45 0.08660254037844388 0  0.5173648177666931 0.0984807753012208 0  -0.2965686451888956 -3.216245299353273e-16 0  0.02995799338450739 0.4463820650390996 0  0.02995799338450775 -0.4463820650390995 0  -0.3955719483658615 0.4150379846043291 0  -0.4169105514339966 -0.4032046590493156 0  -0.6262911543602625 0.1406750128378851 0  0.4099697941225568 0.4649562806856727 0  0.4099697941225571 -0.4649562806856725 0  0.05127126517818126 0.08817401780249684 0  -0.1831682142260297 -0.6686721086721615 0  -0.1831682142260294 0.6686721086721619 0  -0.6520464330424147 -0.1814832365373373 0  0.2091634468672813 0.6766366337832459 0  0.1883365569596445 -0.6875396105945327 0  0.2159040325791659 -0.2383848214817743 0  -0.1744543149380852 0.2484563274625736 0  -0.06716122455575962 -0.1748068953293204 0  0.2513036159616241 0.2568747514607447 0  0.6477088057990819 -0.3356515765545967 0  0.6477088057990816 0.3356515765545969 0  -0.6429348001755962 0.3888615828205575 0  -0.4176911395802332 -0.639529979133491 0  -0.6487907438517166 -0.4141725603623674 0  -0.4382859878713386 0.638471665172117 0  -0.1883060146004528 -0.3712832336183189 0  -0.4093410988944064 0.1924263534676403 0  0.7784262897673441 0.1313041761919452 0  0.7692266286696862 -0.1588101168391893 0  -0.3273037620396328 -0.2103878546156154 0  -0.1798454764806241 0.458542771899162 0  0.4017553023960708 -0.6784121172515977 0  -0.7833260349743965 -0.008879310202590557 0  -0.4794205971237819 -0.08072648637784163 0  0.4174224539707952 0.6731117436251652 0  0.01086072875173043 0.7779172259216657 0  0.5993482410529842 0.529941331081667 0  0.5800727149699484 -0.5610028828936883 0  -0.002913066865704084 -0.7863475463243047 0  0.4644692980420977 0.281953550413786 0  0.4644692980420981 -0.281953550413786 0  0.2204900511885566 0.4449044634307799 0  0.2180189937406393 -0.4954600835645215 0  0.2060327886352148 -0.03858259979572255 0  -0.7808481637664745 0.2422213783127347 0  0.06990549121986947 0.2690208389553115 0  -0.1124194025531066 0.00373323440863213 0  -0.2838372182411008 -0.5216724848805774 0  0.03130371177689495 -0.6180840640285581 0  -0.7762218745645899 -0.2989562490519654 0  0.05214597457400483 0.613977754767665 0  -0.4956543915012957 -0.251170934148539 0  -0.5275381827985767 -0.5210032025475994 0  -0.5301696116286927 0.5051064981533095 0  -0.16809888692682 -0.8270183856644552 0  -0.3240121076586466 0.7657967722683376 0  -0.1438288839385778 0.8257307941019953 0  -0.2998557134907758 0.5617360107302967 0  0.1684367173033988 0.8286804545679113 0  -0.6250110225296729 -0.01789111552180164 0  -0.3137113036339798 -0.7609856814941814 0  -0.1170075000122383 -0.518790272865666 0  0.05108989091758273 -0.06990257622780319 0  -0.5427150590508653 0.270931066435428 0  0.1429967624415053 -0.8342737229435346 0  0.2997239097253987 -0.7923562376371267 0  0.2676893696803808 0.1031671400466477 0  0.3261287713905652 -0.3403712992466087 0  0.7950089908879098 0.2858943947941835 0  0.3151824699376609 0.7865115564528017 0  0.3115634426834656 0.5726907027982669 0  0.704039443019545 -0.4753841151972395 0  0.7470219429290336 -0.01290298646666185 0  -0.8321235529347469 -0.1551998530807213 0  0.05709269783870959 -0.2835250962999872 0  -0.2021447182543711 -0.1140175740005167 0  -0.05854661192244001 0.3332686099592011 0  -0.4944752806394075 0.06870205217856792 0  0.6465785626300955 0.1909460270059954 0  0.6150172073263744 -0.1992156468339642 0  -0.08321382237958147 0.5651617303365446 0  -0.6720985235143602 0.5299695767353035 0  0.3081627102340266 -0.1336818188805801 0  0.7954182263431147 -0.306979485853048 0  -0.0801862748968569 0.1421281857867356 0  -0.2704290205461716 0.3511058548763765 0  -0.2733876063765904 0.1428439818287992 0  -0.6630142665634642 -0.5525422555121322 0  0.7250705628492369 0.4580712316052048 0  0.5291222693526491 0.4008241947929737 0  0.543461903937986 -0.42718897847992 0  -0.5796080761878384 0.6375025331582558 0  -0.5686737890628571 -0.6510435601866913 0  0.1471374478051752 -0.382217095965624 0  0.367570301927055 0.1909193223550535 0  0.8716954478736112 0.02914395839180125 0  0.3487459623057126 0.3471068582357988 0  0.1543099947611301 0.1689404724154097 0  -0.07297109638128209 -0.3068109338541753 0  0.2917188534562402 -0.6051822784871949 0  -0.2024804285799746 -0.2430406644266693 0  -0.7781944430042567 0.3778986247265116 0  -0.8494742869240901 0.1173360134018405 0  -0.7720870174071235 -0.4231153023082534 0  -0.449110317890587 -0.7582468751604555 0  0.5545923664877855 0.6602415200552888 0  0.5344562863167422 -0.6858381270857777 0  0.4766344790775262 0.566780609122759 0  -0.445772660902635 0.7601337067632379 0  -0.6616262409933745 0.2552874992358464 0  0.1653545872376546 0.5583524484327292 0  -0.4028773004059317 -0.5214149604035093 0  -0.2990776467406227 -0.6432205051811133 0  0.1120905589734103 -0.1750840530986415 0  0.06398953478431954 0.8829484618446889 0  -0.5251433924072202 0.3874134656159851 0  -0.6099143365137073 -0.2972611803339155 0  -0.04678747567896177 0.6762313351705379 0  -0.533024901227188 -0.4050045909030676 0  0.1246725721343765 0.3745355098341986 0  -0.3000083100373507 -0.4058635916290634 0  -0.06655528087218812 -0.8836517798731542 0  -0.4088769106504622 0.5282941447433156 0  -0.7345489526308654 0.09712579222418664 0  0.1081465349890011 -0.5316255335782825 0  0.8804353520695445 -0.1485109638682795 0  -0.3713419913383989 0.08543731094255294 0  -0.43252237558797 0.3055918258709063 0  0.1125429094389743 0.7322321616258178 0  -0.8927041854393205 -0.02984635711944513 0  -0.06589562952638969 -0.6859291199262957 0  -0.7331201394770802 -0.1069200385835311 0  -0.08867729710384351 -0.414111852980487 0  -0.0447872543388
[...]
<PointData  Vectors="f_25"> 
<DataArray  type="Float64"  Name="f_25"  NumberOfComponents="3" format="ascii">0.0000000000000000e+00 0.0000000000000000e+00 0.0000000000000000e+00  0.0000000000000000e+00 0.0000000000000000e+00 0.0000000000000000e+00  0.0000000000000000e+00 0.0000000000000000e+00 0.0000000000000000e+00  0.0000000000000000e+00 0.0000000000000000e+00 0.0000000000000000e+00  0.0000000000000000e+00 0.0000000000000000e+00 0.0000000000000000e+00  0.0000000000000000e+00 0.0000000000000000e+00 0.0000000000000000e+00  0.0000000000000000e+00 0.0000000000000000e+00 0.0000000000000000e+00  0.0000000000000000e+00 0.0000000000000000e+00 0.0000000000000000e+00  0.0000000000000000e+00 0.0000000000000000e+00 0.0000000000000000e+00  0.0000000000000000e+00 0.0000000000000000e+00 0.0000000000000000e+00  0.0000000000000000e+00 0.0000000000000000e+00 0.0000000000000000e+00  0.0000000000000000e+00 0.0000000000000000e+00 0.0000000000000000e+00  0.0000000000000000e+00 0.0000000000000000e+00 0.0000000000000000e+00  0.0000000000000000e+00 0.0000000000000000e+00 0.0000000000000000e+00  0.0000000000000000e+00 0.0000000000000000e+00 0.0000000000000000e+00  0.0000000000000000e+00 0.0000000000000000e+00 0.0000000000000000e+00  0.0000000000000000e+00 0.0000000000000000e+00 0.0000000000000000e+00  0.0000000000000000e+00 0.0000000000000000e+00 0.0000000000000000e+00  0.0000000000000000e+00 0.0000000000000000e+00 0.0000000000000000e+00  0.0000000000000000e+00 0.0000000000000000e+00 0.0000000000000000e+00  0.0000000000000000e+00 0.0000000000000000e+00 0.0000000000000000e+00  0.0000000000000000e+00 0.0000000000000000e+00 0.0000000000000000e+00  0.0000000000000000e+00 0.0000000000000000e+00 0.0000000000000000e+00  0.0000000000000000e+00 0.0000000000000000e+00 0.0000000000000000e+00  0.0000000000000000e+00 0.0000000000000000e+00 0.0000000000000000e+00  0.0000000000000000e+00 0.0000000000000000e+00 0.0000000000000000e+00  0.0000000000000000e+00 0.0000000000000000e+00 0.0000000000000000e+00  0.0000000000000000e+00 0.0000000000000000e+00 0.0000000000000000e+00  0.0000000000000000e+00 0.0000000000000000e+00 0.0000000000000000e+00  0.0000000000000000e+00 0.0000000000000000e+00 0.0000000000000000e+00  0.0000000000000000e+00 0.0000000000000000e+00 0.0000000000000000e+00  0.0000000000000000e+00 0.0000000000000000e+00 0.0000000000000000e+00  0.0000000000000000e+00 0.0000000000000000e+00 0.0000000000000000e+00  0.0000000000000000e+00 0.0000000000000000e+00 0.0000000000000000e+00  0.0000000000000000e+00 0.0000000000000000e+00 0.0000000000000000e+00  0.0000000000000000e+00 0.0000000000000000e+00 0.0000000000000000e+00  0.0000000000000000e+00 0.0000000000000000e+00 0.0000000000000000e+00  0.0000000000000000e+00 0.0000000000000000e+00 0.0000000000000000e+00  0.0000000000000000e+00 0.0000000000000000e+00 0.0000000000000000e+00  0.0000000000000000e+00 0.0000000000000000e+00 0.0000000000000000e+00  0.0000000000000000e+00 0.0000000000000000e+00 0.0000000000000000e+00  0.0000000000000000e+00 0.0000000000000000e+00 0.0000000000000000e+00  0.0000000000000000e+00 0.0000000000000000e+00 0.0000000000000000e+00  0.0000000000000000e+00 0.0000000000000000e+00 0.0000000000000000e+00  0.0000000000000000e+00 0.0000000000000000e+00 0.0000000000000000e+00  0.0000000000000000e+00 0.0000000000000000e+00 0.0000000000000000e+00  0.0000000000000000e+00 0.0000000000000000e+00 0.0000000000000000e+00  0.0000000000000000e+00 0.0000000000000000e+00 0.0000000000000000e+00  0.0000000000000000e+00 0.0000000000000000e+00 0.0000000000000000e+00  0.0000000000000000e+00 0.0000000000000000e+00 0.0000000000000000e+00  0.0000000000000000e+00 0.0000000000000000e+00 0.0000000000000000e+00  0.0000000000000000e+00 0.0000000000000000e+00 0.0000000000000000e+00  0.0000000000000000e+00 0.0000000000000000e+00 0.0000000000000000e+00  0.0000000000000000e+00 0.0000000000000000e+00 0.0000000000000000e+00  0.0000000000000000e+00 0.0000000000000000e+00 0.0000000000000000e+00  0.0000000000000000e+00 0.0000000000000000e+00 0.0000000000000000e+00  0.0000000000000000e+00 0.0000000000000000e+00 0.0000000000000000e+00  0.0000000000000000e+00 0.0000000000000000e+00 0.0000000000000000e+00  0.0000000000000000e+00 0.0000000000000000e+00 0.0000000000000000e+00  0.0000000000000000e+00 0.0000000000000000e+00 0.0000000000000000e+00  0.0000000000000000e+00 0.0000000000000000e+00 0.0000000000000000e+00  0.0000000000000000e+00 0.0000000000000000e+00 0.0000000000000000e+00  0.0000000000000000e+00 0.0000000000000000e+00 0.0000000000000000e+00  0.0000000000000000e+00 0.0000000000000000e+00 0.0000000000000000e+00  0.0000000000000000e+00 0.0000000000000000e+00 0.0000000000000000e+00  0.0000000000000000e+00 0.0000000000000000e+00 0.0000000000000000e+00  0.0000000000000000e+00 0.0000000000000000e+00 0.0000000000000000e+00  0.0000000000000000e+00 0.0000000000000000e+00 0.0000000000000000e+00  0.0000000000000000e+00 0.0000000000000000e+00 0.0000000000000000e+00  0.0000000000000000e+00 0.0000000000000000e+00 0.0000000000000000e+00  0.0000000000000000e+00 0.0000000000000000e+00 0.0000000000000000e+00  0.0000000000000000e+00 0.0000000000000000e+00 0.0000000000000000e+00  0.0000000000000000e+00 0.0000000000000000e+00 0.0000000000000000e+00  0.0000000000000000e+00 0.0000000000000000e+00 0.0000000000000000e+00  0.0000000000000000e+00 0.0000000000000000e+00 0.0000000000000000e+00  0.0000000000000000e+00 0.0000000000000000e+00 0.0000000000000000e+00  0.0000000000000000e+00 0.0000000000000000e+00 0.0000000000000000e+00  0.0000000000000000e+00 0.0000000000000000e+00 0.0000000000000000e+00  0.0000000000000000e+00 0.0000000000000000e+00 0.0000000000000000e+00  0.0000000000000000e+00 0.0000000000000000e+00 0.0000000000000000e+00  0.0000000000000000e+00 0.0000000000000000e+00 0.0000000000000000e+00  0.0000000000000000e+00 0.0000000000000000e+00 0.0000000000000000e+00  0.0000000000000000e+00 0.0000000000000000e+00 0.0000000000000000e+00  0.0000000000000000e+00 0.0000000000000000e+00 0.0000000000000000e+00  0.0000000000000000e+00 0.0000000000000000e+00 0.0000000000000000e+00  0.0000000000000000e+00 0.0000000000000000e+00 0.0000000000000000e+00  0.0000000000000000e+00 0.0000000000000000e+00 0.0000000000000000e+00  0.0000000000000000e+00 0.0000000000000000e+00 0.0000000000000000e+00  0.0000000000000000e+00 0.0000000000000000e+00 0.0000000000000000e+00  0.0000000000000000e+00 0.0000000000000000e+00 0.0000000000000000e+00  0.0000000000000000e+00 0.0000000000000000e+00 0.0000000000000000e+00  0.0000000000000000e+00 0.0000000000000000e+00 0.0000000000000000e+00  0.0000000000000000e+00 0.0000000000000000e+00 0.0000000000000000e+00  0.0000000000000000e+00 0.0000000000000000e+00 0.0000000000000000e+00  0.0000000000000000e+00 0.0000000000000000e+00 0.0000000000000000e+00  0.0000000000000000e+00 0.0000000000000000e+00 0.0000000000000000e+00  0.0000000000000000e+00 0.0000000000000000e+00 0.0000000000000000e+00  0.0000000000000000e+00 0.0000000000000000e+00 0.0000000000000000e+00  0.0000000000000000e+00 0.0000000000000000e+00 0.0000000000000000e+00  0.0000000000000000e+00 0.0000000000000000e+00 0.0000000000000000e+00  0.0000000000000000e+00 0.0000000000000000e+00 0.0000000000000000e+00  0.0000000000000000e+00 0.0000000000000000e+00 0.0000000000000000e+00  0.0000000000000000e+00 0.0000000000000000e+00 0.0000000000000000e+00  -1.4026183845529486e-04 -1.5172820744310944e-01 0.0000000000000000e+00  -2.0125311281334729e-01 2.7568009518402454e-02 0.0000000000000000e+00  2.0178405129592589e-01 2.7044639845680282e-02 0.0000000000000000e+00  -1.6663626935977366e-01 -1.5400894449705627e-01 0.0000000000000000e+00  1.6013896729416241e-01 -1.6110515516420890e-01 0.0000000000000000e+00  -4.9519837725575964e-02 -2.1751780472816290e-01 0.0000000000000000e+00  -1.5176071902155447e-01 1.3302931564478354e-01 0.0000000000000000e+00  1.5208040524471367e-01 1.3387863622669710e-01 0.0000000000000000e+00  -4.3898855343093630e-02 7.4174943059416229e-02 0.0000000000000000e+00  1.9772083125686704e-01 -5.1215293945009961e-02 0.0000000000000000e+00  -1.9768770065006197e-01 -5.0958686667171287e-02 0.0000000000000000e+00  5.8259181263968084e-02 -2.0725654742111974e-01 0.0000000000000000e+00  -1.8261020390882940e-01 5.9758081552055545e-02 0.0000000000000000e+00  1.8367820916046362e-01 5.3444312092119223e-02 0.0000000000000000e+00  9.2288223220902826e-02 1.3342045375787945e-01 0.0000000000000000e+00  -1.3396827642400796e-01 -7.7756709111031302e-02 0.0000000000000000e+00  9.5155792693627533e-02 -1.0189878457682029e-02 0.0000000000000000e+00  -9.4604853369167255e-02 1.3935806782112298e-01 0.0000000000000000e+00  1.0488838020585245e-01 1.5728358758576969e-01 0.0000000000000000e+00  -1.0566917610378744e-01 1.5717404292001039e-01 0.0000000000000000e+00  -9.7684698791744268e-02 -1.6024512289028051e-01 0.0000000000000000e+00  1.5099642664441526e-01 -9.7066280115178330e-02 0.0000000000000000e+00  9.6737453556853509e-02 -1.5036953184484175e-01 0.0000000000000000e+00  -1.4443574410687815e-01 -9.7815990606611752e-02 0.0000000000000000e+00  1.8271930660648744e-01 -8.1692460608642145e-02 0.0000000000000000e+00  -9.3634261031388000e-02 -1.9176962388956062e-01 0.0000000000000000e+00  -5.1958913231918688e-02 1.9427981301781744e-01 0.0000000000000000e+00  6.1173767626697094e-02 1.8912054074592913e-01 0.0000000000000000e+00  1.0880280454639221e-01 -1.5950267665836976e-01 0.0000000000000000e+00  -2.0498225823868432e-01 -7.1753261223287332e-02 0.0000000000000000e+00  1.3470668782688414e-01 8.0279631276757218e-02 0.0000000000000000e+00  1.9957004640178181e-03 -1.7260787490678745e-01 0.0000000000000000e+00  3.7719256378138367e-02 -2.1831222473142869e-01 0.0000000000000000e+00  -1.3132315714280518e-01 8.1743291845621319e-02 0.0000000000000000e+00  -1.6708073233715032e-01 4.2565767527305469e-03 0.0000000000000000e+00  -1.0441586956613726e-01 1.1099150345153644e-01 0.0000000000000000e+00  1.0515320526592170e-01 1.0407229487498022e-01 0.0000000000000000e+00  1.6317408931084276e-01 1.0099090251972321e-03 0.0000000000000000e+00  -9.9810775896060994e-02 1.4423349733542240e-01 0.0000000000000000e+00  9.9612489035788315e-02 1.4673544031135272e-01 0.0000000000000000e+00  -1.7743682169157265e-01 1.0159526980750926e-01 0.0000000000000000e+00  1.8938498481326432e-01 9.3051900938678322e-02 0.0000000000000000e+00  8.3745854928505142e-03 1.6992231608020986e-01 0.0000000000000000e+00  -4.5284304555792181e-02 -1.4561476672347384e-01 0.0000000000000000e+00  -1.3057600159329891e-01 6.5723396777585125e-02 0.0000000000000000e+00  -2.4474321591835750e-03 -3.6915612194578659e-02 0.0000000000000000e+00  1.9886140817282300e-01 -1.0346202231776039e-01 0.0000000000000000e+00  2.1497785259265123e-01 1.6512593009286442e-02 0.0000000000000000e+00  5.1681611433669984e-02 -1.3357464256619242e-01 0.0000000000000000e+00  -2.1363457197596014e-01 2.4197108815951430e-02 0.0000000000000000e+00  1.0518856313680962e-01 -2.0293048057100288e-01 0.0000000000000000e+00  1.3498196551095143e-01 -1.3509244860686948e-01 0.0000000000000000e+00  -1.3525809509796344e-01 -1.4027948956569686e-01 0.0000000000000000e+00  1.2808539960193643e-01 -2.5173458661756083e-02 0.0000000000000000e+00  -1.2935299640770337e-01 -5.3926158086307262e-02 0.0000000000000000e+00  -1.3230556298530194e-01 -2.2173679398827702e-02 0.0000000000000000e+00  -1.9511633736886599e-01 -1.0027193304004824e-01 0.0000000000000000e+00  -1.2330361185303974e-01 2.5955214041752956e-02 0.0000000000000000e+00  6.4993777929536452e-03 -2.2575906256964826e-01 0.0000000000000000e+00  1.3475244974090170e-01 -5.4601093261317339e-02 0.0000000000000000e+00  2.1673720943496430e-01 -4.1287206271999125e-02 0.0000000000000000e+00  3.3597751420136976e-02 7.4594235561191546e-02 0.0000000000000000e+00  -1.0279286318215027e-01 -2.0251034672212254e-01 0.0000000000000000e+00  1.2391568957137089e-01 2.2136762867422881e-02 0.0000000000000000e+00  1.1563194144721027e-01 4.4434479437524002e-02 0.0000000000000000e+00  -1.3513772278395319e-02 1.8255746361139058e-01 0.0000000000000000e+00  1.2682237252179973e-01 1.3981897170416857e-01 0.0000000000000000e+00  -6.2149103719744553e-02 1.3620159861411260e-01 0.0000000000000000e+00  -1.1434266637379036e-01 4.6498864270364475e-02 0.0000000000000000e+00  -1.7657264001230044e-01 9.9828565191299984e-02 0.0000000000000000e+00  7.6342113803073985e-02 1.0281827063786179e-01 0.0000000000000000e+00  7.7048114051532415e-03 2.3236980103118912e-01 0.0000000000000000e+00  2.4506357274430138e-02 -1.3119550690433918e-01 0.0000000000000000e+00  1.3907903160645918e-01 5.6321321904548194e-02 0.0000000000000000e+00  6.4309731481342891e-02 -9.6355980158476601e-02 0.0000000000000000e+00  -1.6940340314404601e-01 -1.1364898219424073e-02 0.0000000000000000e+00  -3.1578250113769225e-02 -2.2163137828851565e-01 0.0000000000000000e+00  -1.0275260363685619e-01 1.8281185651494639e-01 0.0000000000000000e+00  1.0695778749769366e-01 1.7043526911184548e-01 0.0000000000000000e+00  -2.1940942196684404e-01 -2.5516763066100387e-02 0.0000000000000000e+00  -7.8192865201854589e-02 -9.8669534150958485e-02 0.0000000000000000e+00  1.1001410112011988e-02 1.7629747684094910e-01 0.0000000000000000e+00  6.1076849669121955e-02 1.2750096901300481e-01 0.0000000000000000e+00  -7.8582887005719818e-02 -1.7112874679564682e-02 0.0000000000000000e+00  -1.6973153970606752e-01 -1.2148809351780231e-01 0.0000000000000000e+00  -7.8563097210671839e-02 -1.3660188528216272e-01 0.0000000000000000e+00  7.7425475820530151e-02 -9.2417061578755774e-02 0.0000000000000000e+00  -7.1529336489610171e-02 1.0170337614084431e-01 0.0000000000000000e+00  -1.2649044175222629e-01 1.4776301487257934e-01 0.0000000000000000e+00  1.2585671057977338e-01 1.4384204641845136e-01 0.0000000000000000e+00  -8.9928392468307888e-02 -8.1284578319492845e-02 0.0000000000000000e+00  8.9859845081658743e-02 -7.8055514972385373e-02 0.0000000000000000e+00  1.6899421779884438e-01 8.5400534295765537e-02 0.0000000000000000e+00  -3.2283118457342171e-02 1.4680626154309381e-01 0.0000000000000000e+00  -6.9732821726469990e-03 1.5251511152893826e-01 0.0000000000000000e+00  -1.2638759401018512e-01 1.4112020083576174e-01 0.0000000000000000e+00  -6.9527768904527137e-02 1.2401557548019591e-01 0.0000000000000000e+00  1.5919671724732090e-01 -1.9323231730997762e-02 0.0000000000000000e+00  1.7900693542764751e-01 8.9789727082490930e-02 0.0000000000000000e+00  1.3084416478806543e-01 -9.4400290948594867e-02 0.0000000000000000e+00  -5.2440125487180245e-02 -1.0762747602641957e-01 0.0000000000000000e+00  -1.7195740730374717e-02 -1.2445547695455725e-01 0.0000000000000000e+00  5.1956163547452180e-02 -9.4559320618916323e-02 0.0000000000000000e+00  9.1024220030806458e-02 -5.3528014585708536e-02 0.0000000000000000e+00  -8.7204628206232690e-02 7.1950821039500915e-02 0.0000000000000000e+00  8.5624933668283582e-02 6.5894877456887227e-02 0.0000000000000000e+00  -1.3665964330593178e-01 1.1232638899154189e-01 0.0000000000000000e+00  -9.1303893788347287e-02 -5.3171714113495118e-02 0.0000000000000000e+00  -7.4451482953676887e-02 -1.9114000179125951e-01 0.0000000000000000e+00  -2.0275537801244695e-01 6.7840354262477018e-02 0.0000000000000000e+00  1.7284500397903552e-01 -1.3068342962023730e-01 0.0000000000000000e+00  1.8296156456497220e-01 -8.2554355380935349e-02 0.0000000000000000e+00  7.8491494031677975e-02 1.0022374817649676e-01 0.0000000000000000e+00  -9.8682897765096519e-02 7.6806730510286039e-03 0.0000000000000000e+00  -1.3179168525567150e-01 -1.7580035822991252e-01 0.0000000000000000e+00  9.4807784650823304e-02 -1.9229839645877553e-01 0.0000000000000000e+00  -2.0579971086678855e-01 -1.0346913855647025e-02 0.0000000000000000e+00  1.3170383963541918e-01 -1.7098802715349301e-01 0.0000000000000000e+00  -1.6849634249448797e-01 7.7762280039275447e-02 0.0000000000000000e+00  1.8131522957725923e-01 -1.2716100768701785e-01 0.0000000000000000e+00  9.9068763197256299e-02 -6.9707481702450148e-03 0.0000000000000000e+00  -1.7106428120522024e-01 -1.2941411988566048e-01 0.0000000000000000e+00  -2.5429790231333477e-02 -1.9148757661472229e-01 0.0000000000000000e+00  2.0917851496658135e-01 5.1498316626493394e-02 0.0000000000000000e+00  2.7268997357428063e-02 1.2520939086547250e-01 0.0000000000000000e+00  -4.4921916557981091e-02 -1.8515347430162984e-01 0.0000000000000000e+00  -1.3314920415924825e-01 -1.8298596508556192e-01 0.0000000000000000e+00  -1.7975624304937107e-01 3.0185578527572796e-02 0.0000000000000000e+00  3.3587605221112667e-03 -9.8126113117253416e-02 0.0000000000000000e+00  2.0284209110204898e-01 -1.6157845421386447e-02 0.0000000000000000e+00  2.8052936317954205e-02 -1.9109565841031009e-01 0.0000000000000000e+00  1.9805866917117898e-01 -3.0000813849784674e-02 0.0000000000000000e+00  -1.0876901698208474e-01 -5.0518499870712760e-03 0.0000000000000000e+00  6.5624234716858673e-02 1.4900366346185706e-01 0.0000000000000000e+00  9.5870849294491300e-02 5.3356574236910403e-03 0.0000000000000000e+00  1.7962206111322826e-01 2.5191557301134624e-02 0.0000000000000000e+00  8.3097207768321385e-02 2.1810477924684835e-01 0.0000000000000000e+00  -2.3379043390803812e-02 1.4231385463844726e-01 0.0000000000000000e+00  7.5732313404034815e-02 4.4874169719554359e-02 0.0000000000000000e+00  1.5820304589673520e-01 1.0995631327721320e-01 0.0000000000000000e+00  -7.4852535975346621e-02 4.4349701265901799e-02 0.0000000000000000e+00  2.3572386607234293e-03 2.1903601776979287e-01 0.0000000000000000e+00  -3.3597266438285187e-02 -9.8690239935936577e-02 0.0000000000000000e+00  -1.9102154779166183e-01 -1.1839159982344642e-01 0.0000000000000000e+00  -6.0014732248620230e-02 2.3654715201939380e-01 0.0000000000000000e+00  -2.4456305979549654e-02 1.2499496861856459e-01 0.0000000000000000e+00  1.3571006093775623e-01 -1.7520889096998310e-01 0.0000000000000000e+00  5.7702407196696746e-02 -1.5615799461852478e-01 0.0000000000000000e+00  -1.2661436378065297e-01 -1.4961440191640984e-01 0.0000000000000000e+00  -2.1236192094869649e-01 -6.5666681771168328e-02 0.0000000000000000e+00  -2.0878621813620157e-01 -2.2703525770956984e-02 0.0000000000000000e+00  -1.7769442177512026e-01 -6.8744422160481961e-02 0.0000000000000000e+00  8.9393811771583398e-02 1.7327548771846105e-01 0.0000000000000000e+00  -1.5972238332559280e-01 7.5827371537567106e-02 0.0000000000000000e+00  -7.0998376819640191e-02 -2.1762564958169858e-01 0.0000000000000000e+00  -5.9475785022911093e-02 7.0825397042910174e-02 0.0000000000000000e+00  -1.7917141103035289e-01 -7.5334869748615446e-02 0.0000000000000000e+00  -9.7314156680896061e-02 1.3679322052429060e-01 0.0000000000000000e+00  -1.0691544135347938e-01 1.3525435437409947e-01 0.0000000000000000e+00  4.4571403738139524e-02 1.5137708710742198e-01 0.0000000000000000e+00  -8.5541877614284612e-02 -2.3129201014489339e-02 0.0000000000000000e+00  8.2985922630122069e-02 -1.9875084749476132e-01 0.0000000000000000e+00  7.3567776883743420e-03 -1.9748598045353766e-01 0.0000000000000000e+00  4.3267370442708758e-02 -2.2499756159872303e-01 0.0000000000000000e+00  5.9154694775581877e-02 6.7045963705394146e-02 0.0000000000000000e+00  1.5187088363455153e-01 -1.3289910173616518e-01 0.0000000000000000e+00  -9.4838165060363550e-02 4.2045173407666100e-02 0.0000000000000000e+00  5.0656533623263653e-02 1.1291678647064277e-01 0.0000000000000000e+00  1.3638761919510367e-01 1.2675379076294671e-01 0.0000000000000000e+00  7.9119793534482064e-02 -2.7142242515141256e-02 0.0000000000000000e+00  1.9836543028533807e-01 7.1548590523454914e-02 0.0000000000000000e+00  1.6442767163827296e-01 1.2319988643137197e-01 0.0000000000000000e+00  -8.4860417344256908e-02 -7.9996020579099186e-02 0.0000000000000000e+00  8.0817558121200242e-02 2.2318499531730106e-02 0.0000000000000000e+00  -1.2822441201557724e-01 -1.9202818730540992e-02 0.0000000000000000e+00  -4.4455567999981002e-02 8.4640249541671445e-02 0.0000000000000000e+00  5.1780046355533349e-02 8.8381692145496890e-02 0.0000000000000000e+00  2.5792817668464748e-02 -8.8635122838085875e-02 0.0000000000000000e+00  -1.1376170453692656e-01 1.5514036308149151e-