<?xml version="1.0"?>
<VTKFile type="UnstructuredGrid"  version="0.1"  >
<UnstructuredGrid>
<Piece  NumberOfPoints="1890" NumberOfCells="3574">
<Points>
<DataArray  type="Float64"  NumberOfComponents="3"  format="ascii">1 0 0  0.9977668786231532 0.06679263374512155 0  0.9910774881547801 0.1332869553737788 0  0.9799617050365869 0.1991859851038361 0  0.9644691750543766 0.264195401871286 0  0.9446690916079188 0.3280248578395691 0  0.9206498866764288 0.3903892751634948 0  0.8925188358598812 0.4510101192161018 0  0.8604015792601394 0.5096166425919174 0  0.8244415603417603 0.5659470943305952 0  0.784799385278661 0.6197498889602449 0  0.7416521056479576 0.6707847301392235 0  0.6951924276746423 0.7188236838779293 0  0.6456278515588024 0.7636521965473321 0  0.5931797447293553 0.8050700531275629 0  0.5380823531633727 0.842892271416797 0  0.4805817551866838 0.8769499282066715 0  0.420934762428335 0.9070909137343407 0  0.3594077728375128 0.9331806110416025 0  0.2962755808856342 0.9551024972069124 0  0.2318201502675284 0.9727586637650372 0  0.1663293545831299 0.9860702539900286 0  0.1000956916240984 0.994977815088504 0  0.03341497700767464 0.9994415637302546 0  -0.03341497700767452 0.9994415637302546 0  -0.1000956916240983 0.994977815088504 0  -0.16632935458313 0.9860702539900286 0  -0.2318201502675281 0.9727586637650372 0  -0.2962755808856338 0.9551024972069124 0  -0.3594077728375129 0.9331806110416025 0  -0.4209347624283349 0.9070909137343408 0  -0.4805817551866837 0.8769499282066716 0  -0.5380823531633726 0.8428922714167971 0  -0.5931797447293552 0.805070053127563 0  -0.6456278515588024 0.7636521965473321 0  -0.6951924276746423 0.7188236838779293 0  -0.7416521056479576 0.6707847301392235 0  -0.784799385278661 0.6197498889602449 0  -0.8244415603417601 0.5659470943305954 0  -0.8604015792601392 0.5096166425919177 0  -0.8925188358598811 0.4510101192161021 0  -0.9206498866764287 0.3903892751634951 0  -0.9446690916079189 0.3280248578395689 0  -0.9644691750543765 0.2641954018712862 0  -0.9799617050365867 0.1991859851038363 0  -0.99107748815478 0.133286955373779 0  -0.9977668786231532 0.0667926337451217 0  -1 -3.216245299353273e-16 0  -0.9977668786231532 -0.06679263374512145 0  -0.9910774881547801 -0.1332869553737783 0  -0.9799617050365869 -0.1991859851038361 0  -0.9644691750543766 -0.264195401871286 0  -0.9446690916079188 -0.3280248578395691 0  -0.9206498866764288 -0.3903892751634949 0  -0.8925188358598815 -0.4510101192161015 0  -0.8604015792601394 -0.5096166425919175 0  -0.8244415603417605 -0.5659470943305949 0  -0.7847993852786611 -0.6197498889602446 0  -0.7416521056479575 -0.6707847301392236 0  -0.6951924276746424 -0.7188236838779292 0  -0.6456278515588025 -0.7636521965473319 0  -0.593179744729355 -0.8050700531275631 0  -0.5380823531633728 -0.842892271416797 0  -0.4805817551866835 -0.8769499282066716 0  -0.4209347624283351 -0.9070909137343407 0  -0.3594077728375134 -0.9331806110416024 0  -0.296275580885634 -0.9551024972069124 0  -0.2318201502675288 -0.9727586637650371 0  -0.1663293545831301 -0.9860702539900286 0  -0.1000956916240988 -0.994977815088504 0  -0.03341497700767455 -0.9994415637302546 0  0.03341497700767418 -0.9994415637302546 0  0.1000956916240984 -0.994977815088504 0  0.1663293545831297 -0.9860702539900286 0  0.2318201502675284 -0.9727586637650372 0  0.2962755808856337 -0.9551024972069125 0  0.3594077728375122 -0.9331806110416029 0  0.4209347624283348 -0.9070909137343408 0  0.4805817551866832 -0.8769499282066718 0  0.5380823531633725 -0.8428922714167971 0  0.5931797447293548 -0.8050700531275633 0  0.6456278515588023 -0.7636521965473321 0  0.6951924276746418 -0.7188236838779297 0  0.7416521056479575 -0.6707847301392235 0  0.7847993852786612 -0.6197498889602446 0  0.8244415603417603 -0.5659470943305952 0  0.8604015792601392 -0.5096166425919179 0  0.8925188358598808 -0.4510101192161026 0  0.9206498866764287 -0.3903892751634952 0  0.9446690916079188 -0.328024857839569 0  0.9644691750543765 -0.2641954018712863 0  0.9799617050365869 -0.199185985103836 0  0.99107748815478 -0.1332869553737791 0  0.9977668786231532 -0.06679263374512227 0  0.5766044443118978 0.06427876096865393 0  0.6 0 0  0.5766044443118978 -0.06427876096865397 0  0.517364817766693 -0.09848077530122082 0  0.45 -0.08660254037844384 0  0.4060307379214091 -0.03420201433256687 0  0.4060307379214091 0.03420201433256689 0  0.45 0.08660254037844388 0  0.5173648177666931 0.0984807753012208 0  -0.2965686451888956 -3.216245299353273e-16 0  0.02995799338450739 0.4463820650390996 0  0.02995799338450775 -0.4463820650390995 0  -0.3955719483658615 0.4150379846043291 0  -0.4169105514339966 -0.4032046590493156 0  -0.6262911543602625 0.1406750128378851 0  0.4099697941225568 0.4649562806856727 0  0.4099697941225571 -0.4649562806856725 0  0.05127126517818126 0.08817401780249684 0  -0.1831682142260297 -0.6686721086721615 0  -0.1831682142260294 0.6686721086721619 0  -0.6520464330424147 -0.1814832365373373 0  0.2091634468672813 0.6766366337832459 0  0.1883365569596445 -0.6875396105945327 0  0.2159040325791659 -0.2383848214817743 0  -0.1744543149380852 0.2484563274625736 0  -0.06716122455575962 -0.1748068953293204 0  0.2513036159616241 0.2568747514607447 0  0.6477088057990819 -0.3356515765545967 0  0.6477088057990816 0.3356515765545969 0  -0.6429348001755962 0.3888615828205575 0  -0.4176911395802332 -0.639529979133491 0  -0.6487907438517166 -0.4141725603623674 0  -0.4382859878713386 0.638471665172117 0  -0.1883060146004528 -0.3712832336183189 0  -0.4093410988944064 0.1924263534676403 0  0.7784262897673441 0.1313041761919452 0  0.7692266286696862 -0.1588101168391893 0  -0.3273037620396328 -0.2103878546156154 0  -0.1798454764806241 0.458542771899162 0  0.4017553023960708 -0.6784121172515977 0  -0.7833260349743965 -0.008879310202590557 0  -0.4794205971237819 -0.08072648637784163 0  0.4174224539707952 0.6731117436251652 0  0.01086072875173043 0.7779172259216657 0  0.5993482410529842 0.529941331081667 0  0.5800727149699484 -0.5610028828936883 0  -0.002913066865704084 -0.7863475463243047 0  0.4644692980420977 0.281953550413786 0  0.4644692980420981 -0.281953550413786 0  0.2204900511885566 0.4449044634307799 0  0.2180189937406393 -0.4954600835645215 0  0.2060327886352148 -0.03858259979572255 0  -0.7808481637664745 0.2422213783127347 0  0.06990549121986947 0.2690208389553115 0  -0.1124194025531066 0.00373323440863213 0  -0.2838372182411008 -0.5216724848805774 0  0.03130371177689495 -0.6180840640285581 0  -0.7762218745645899 -0.2989562490519654 0  0.05214597457400483 0.613977754767665 0  -0.4956543915012957 -0.251170934148539 0  -0.5275381827985767 -0.5210032025475994 0  -0.5301696116286927 0.5051064981533095 0  -0.16809888692682 -0.8270183856644552 0  -0.3240121076586466 0.7657967722683376 0  -0.1438288839385778 0.8257307941019953 0  -0.2998557134907758 0.5617360107302967 0  0.1684367173033988 0.8286804545679113 0  -0.6250110225296729 -0.01789111552180164 0  -0.3137113036339798 -0.7609856814941814 0  -0.1170075000122383 -0.518790272865666 0  0.05108989091758273 -0.06990257622780319 0  -0.5427150590508653 0.270931066435428 0  0.1429967624415053 -0.8342737229435346 0  0.2997239097253987 -0.7923562376371267 0  0.2676893696803808 0.1031671400466477 0  0.3261287713905652 -0.3403712992466087 0  0.7950089908879098 0.2858943947941835 0  0.3151824699376609 0.7865115564528017 0  0.3115634426834656 0.5726907027982669 0  0.704039443019545 -0.4753841151972395 0  0.7470219429290336 -0.01290298646666185 0  -0.8321235529347469 -0.1551998530807213 0  0.05709269783870959 -0.2835250962999872 0  -0.2021447182543711 -0.1140175740005167 0  -0.05854661192244001 0.3332686099592011 0  -0.4944752806394075 0.06870205217856792 0  0.6465785626300955 0.1909460270059954 0  0.6150172073263744 -0.1992156468339642 0  -0.08321382237958147 0.5651617303365446 0  -0.6720985235143602 0.5299695767353035 0  0.3081627102340266 -0.1336818188805801 0  0.7954182263431147 -0.306979485853048 0  -0.0801862748968569 0.1421281857867356 0  -0.2704290205461716 0.3511058548763765 0  -0.2733876063765904 0.1428439818287992 0  -0.6630142665634642 -0.5525422555121322 0  0.7250705628492369 0.4580712316052048 0  0.5291222693526491 0.4008241947929737 0  0.543461903937986 -0.42718897847992 0  -0.5796080761878384 0.6375025331582558 0  -0.5686737890628571 -0.6510435601866913 0  0.1471374478051752 -0.382217095965624 0  0.367570301927055 0.1909193223550535 0  0.8716954478736112 0.02914395839180125 0  0.3487459623057126 0.3471068582357988 0  0.1543099947611301 0.1689404724154097 0  -0.07297109638128209 -0.3068109338541753 0  0.2917188534562402 -0.6051822784871949 0  -0.2024804285799746 -0.2430406644266693 0  -0.7781944430042567 0.3778986247265116 0  -0.8494742869240901 0.1173360134018405 0  -0.7720870174071235 -0.4231153023082534 0  -0.449110317890587 -0.7582468751604555 0  0.5545923664877855 0.6602415200552888 0  0.5344562863167422 -0.6858381270857777 0  0.4766344790775262 0.566780609122759 0  -0.445772660902635 0.7601337067632379 0  -0.6616262409933745 0.2552874992358464 0  0.1653545872376546 0.5583524484327292 0  -0.4028773004059317 -0.5214149604035093 0  -0.2990776467406227 -0.6432205051811133 0  0.1120905589734103 -0.1750840530986415 0  0.06398953478431954 0.8829484618446889 0  -0.5251433924072202 0.3874134656159851 0  -0.6099143365137073 -0.2972611803339155 0  -0.04678747567896177 0.6762313351705379 0  -0.533024901227188 -0.4050045909030676 0  0.1246725721343765 0.3745355098341986 0  -0.3000083100373507 -0.4058635916290634 0  -0.06655528087218812 -0.8836517798731542 0  -0.4088769106504622 0.5282941447433156 0  -0.7345489526308654 0.09712579222418664 0  0.1081465349890011 -0.5316255335782825 0  0.8804353520695445 -0.1485109638682795 0  -0.3713419913383989 0.08543731094255294 0  -0.43252237558797 0.3055918258709063 0  0.1125429094389743 0.7322321616258178 0  -0.8927041854393205 -0.02984635711944513 0  -0.06589562952638969 -0.6859291199262957 0  -0.7331201394770802 -0.1069200385835311 0  -0.08867729710384351 -0.414111852980487 0  -0.0447872543388
[...]
<PointData  Vectors="f_25"> 
<DataArray  type="Float64"  Name="f_25"  NumberOfComponents="3" format="ascii">0.0000000000000000e+00 0.0000000000000000e+00 0.0000000000000000e+00  0.0000000000000000e+00 0.0000000000000000e+00 0.0000000000000000e+00  0.0000000000000000e+00 0.0000000000000000e+00 0.0000000000000000e+00  0.0000000000000000e+00 0.0000000000000000e+00 0.0000000000000000e+00  0.0000000000000000e+00 0.0000000000000000e+00 0.0000000000000000e+00  0.0000000000000000e+00 0.0000000000000000e+00 0.0000000000000000e+00  0.0000000000000000e+00 0.0000000000000000e+00 0.0000000000000000e+00  0.0000000000000000e+00 0.0000000000000000e+00 0.0000000000000000e+00  0.0000000000000000e+00 0.0000000000000000e+00 0.0000000000000000e+00  0.0000000000000000e+00 0.0000000000000000e+00 0.0000000000000000e+00  0.0000000000000000e+00 0.0000000000000000e+00 0.0000000000000000e+00  0.0000000000000000e+00 0.0000000000000000e+00 0.0000000000000000e+00  0.0000000000000000e+00 0.0000000000000000e+00 0.0000000000000000e+00  0.0000000000000000e+00 0.0000000000000000e+00 0.0000000000000000e+00  0.0000000000000000e+00 0.0000000000000000e+00 0.0000000000000000e+00  0.0000000000000000e+00 0.0000000000000000e+00 0.0000000000000000e+00  0.0000000000000000e+00 0.0000000000000000e+00 0.0000000000000000e+00  0.0000000000000000e+00 0.0000000000000000e+00 0.0000000000000000e+00  0.0000000000000000e+00 0.0000000000000000e+00 0.0000000000000000e+00  0.0000000000000000e+00 0.0000000000000000e+00 0.0000000000000000e+00  0.0000000000000000e+00 0.0000000000000000e+00 0.0000000000000000e+00  0.0000000000000000e+00 0.0000000000000000e+00 0.0000000000000000e+00  0.0000000000000000e+00 0.0000000000000000e+00 0.0000000000000000e+00  0.0000000000000000e+00 0.0000000000000000e+00 0.0000000000000000e+00  0.0000000000000000e+00 0.0000000000000000e+00 0.0000000000000000e+00  0.0000000000000000e+00 0.0000000000000000e+00 0.0000000000000000e+00  0.0000000000000000e+00 0.0000000000000000e+00 0.0000000000000000e+00  0.0000000000000000e+00 0.0000000000000000e+00 0.0000000000000000e+00  0.0000000000000000e+00 0.0000000000000000e+00 0.0000000000000000e+00  0.0000000000000000e+00 0.0000000000000000e+00 0.0000000000000000e+00  0.0000000000000000e+00 0.0000000000000000e+00 0.0000000000000000e+00  0.0000000000000000e+00 0.0000000000000000e+00 0.0000000000000000e+00  0.0000000000000000e+00 0.0000000000000000e+00 0.0000000000000000e+00  0.0000000000000000e+00 0.0000000000000000e+00 0.0000000000000000e+00  0.0000000000000000e+00 0.0000000000000000e+00 0.0000000000000000e+00  0.0000000000000000e+00 0.0000000000000000e+00 0.0000000000000000e+00  0.0000000000000000e+00 0.0000000000000000e+00 0.0000000000000000e+00  0.0000000000000000e+00 0.0000000000000000e+00 0.0000000000000000e+00  0.0000000000000000e+00 0.0000000000000000e+00 0.0000000000000000e+00  0.0000000000000000e+00 0.0000000000000000e+00 0.0000000000000000e+00  0.0000000000000000e+00 0.0000000000000000e+00 0.0000000000000000e+00  0.0000000000000000e+00 0.0000000000000000e+00 0.0000000000000000e+00  0.0000000000000000e+00 0.0000000000000000e+00 0.0000000000000000e+00  0.0000000000000000e+00 0.0000000000000000e+00 0.0000000000000000e+00  0.0000000000000000e+00 0.0000000000000000e+00 0.0000000000000000e+00  0.0000000000000000e+00 0.0000000000000000e+00 0.0000000000000000e+00  0.0000000000000000e+00 0.0000000000000000e+00 0.0000000000000000e+00  0.0000000000000000e+00 0.0000000000000000e+00 0.0000000000000000e+00  0.0000000000000000e+00 0.0000000000000000e+00 0.0000000000000000e+00  0.0000000000000000e+00 0.0000000000000000e+00 0.0000000000000000e+00  0.0000000000000000e+00 0.0000000000000000e+00 0.0000000000000000e+00  0.0000000000000000e+00 0.0000000000000000e+00 0.0000000000000000e+00  0.0000000000000000e+00 0.0000000000000000e+00 0.0000000000000000e+00  0.0000000000000000e+00 0.0000000000000000e+00 0.0000000000000000e+00  0.0000000000000000e+00 0.0000000000000000e+00 0.0000000000000000e+00  0.0000000000000000e+00 0.0000000000000000e+00 0.0000000000000000e+00  0.0000000000000000e+00 0.0000000000000000e+00 0.0000000000000000e+00  0.0000000000000000e+00 0.0000000000000000e+00 0.0000000000000000e+00  0.0000000000000000e+00 0.0000000000000000e+00 0.0000000000000000e+00  0.0000000000000000e+00 0.0000000000000000e+00 0.0000000000000000e+00  0.0000000000000000e+00 0.0000000000000000e+00 0.0000000000000000e+00  0.0000000000000000e+00 0.0000000000000000e+00 0.0000000000000000e+00  0.0000000000000000e+00 0.0000000000000000e+00 0.0000000000000000e+00  0.0000000000000000e+00 0.0000000000000000e+00 0.0000000000000000e+00  0.0000000000000000e+00 0.0000000000000000e+00 0.0000000000000000e+00  0.0000000000000000e+00 0.0000000000000000e+00 0.0000000000000000e+00  0.0000000000000000e+00 0.0000000000000000e+00 0.0000000000000000e+00  0.0000000000000000e+00 0.0000000000000000e+00 0.0000000000000000e+00  0.0000000000000000e+00 0.0000000000000000e+00 0.0000000000000000e+00  0.0000000000000000e+00 0.0000000000000000e+00 0.0000000000000000e+00  0.0000000000000000e+00 0.0000000000000000e+00 0.0000000000000000e+00  0.0000000000000000e+00 0.0000000000000000e+00 0.0000000000000000e+00  0.0000000000000000e+00 0.0000000000000000e+00 0.0000000000000000e+00  0.0000000000000000e+00 0.0000000000000000e+00 0.0000000000000000e+00  0.0000000000000000e+00 0.0000000000000000e+00 0.0000000000000000e+00  0.0000000000000000e+00 0.0000000000000000e+00 0.0000000000000000e+00  0.0000000000000000e+00 0.0000000000000000e+00 0.0000000000000000e+00  0.0000000000000000e+00 0.0000000000000000e+00 0.0000000000000000e+00  0.0000000000000000e+00 0.0000000000000000e+00 0.0000000000000000e+00  0.0000000000000000e+00 0.0000000000000000e+00 0.0000000000000000e+00  0.0000000000000000e+00 0.0000000000000000e+00 0.0000000000000000e+00  0.0000000000000000e+00 0.0000000000000000e+00 0.0000000000000000e+00  0.0000000000000000e+00 0.0000000000000000e+00 0.0000000000000000e+00  0.0000000000000000e+00 0.0000000000000000e+00 0.0000000000000000e+00  0.0000000000000000e+00 0.0000000000000000e+00 0.0000000000000000e+00  0.0000000000000000e+00 0.0000000000000000e+00 0.0000000000000000e+00  0.0000000000000000e+00 0.0000000000000000e+00 0.0000000000000000e+00  0.0000000000000000e+00 0.0000000000000000e+00 0.0000000000000000e+00  0.0000000000000000e+00 0.0000000000000000e+00 0.0000000000000000e+00  0.0000000000000000e+00 0.0000000000000000e+00 0.0000000000000000e+00  0.0000000000000000e+00 0.0000000000000000e+00 0.0000000000000000e+00  0.0000000000000000e+00 0.0000000000000000e+00 0.0000000000000000e+00  0.0000000000000000e+00 0.0000000000000000e+00 0.0000000000000000e+00  0.0000000000000000e+00 0.0000000000000000e+00 0.0000000000000000e+00  0.0000000000000000e+00 0.0000000000000000e+00 0.0000000000000000e+00  0.0000000000000000e+00 0.0000000000000000e+00 0.0000000000000000e+00  0.0000000000000000e+00 0.0000000000000000e+00 0.0000000000000000e+00  0.0000000000000000e+00 0.0000000000000000e+00 0.0000000000000000e+00  0.0000000000000000e+00 0.0000000000000000e+00 0.0000000000000000e+00  0.0000000000000000e+00 0.0000000000000000e+00 0.0000000000000000e+00  0.0000000000000000e+00 0.0000000000000000e+00 0.0000000000000000e+00  0.0000000000000000e+00 0.0000000000000000e+00 0.0000000000000000e+00  0.0000000000000000e+00 0.0000000000000000e+00 0.0000000000000000e+00  -4.7996215670713363e-05 -9.9707200463261744e-02 0.0000000000000000e+00  -1.3256571415186721e-01 2.1760480443828469e-02 0.0000000000000000e+00  1.3276564442055883e-01 2.1569095902393816e-02 0.0000000000000000e+00  -1.1189392079730701e-01 -1.0221435492390671e-01 0.0000000000000000e+00  1.0752522467030251e-01 -1.0699612250122030e-01 0.0000000000000000e+00  -3.3197479318529420e-02 -1.4518885597962433e-01 0.0000000000000000e+00  -9.6776822375025967e-02 8.5345839970392051e-02 0.0000000000000000e+00  9.6891040119859370e-02 8.5709939686141892e-02 0.0000000000000000e+00  -2.7705601049245708e-02 5.9024646227399363e-02 0.0000000000000000e+00  1.2972500539121154e-01 -3.2755407719693617e-02 0.0000000000000000e+00  -1.2972839091494376e-01 -3.2678513667516965e-02 0.0000000000000000e+00  3.8901692759505661e-02 -1.3782050471093601e-01 0.0000000000000000e+00  -1.1721110938594766e-01 3.9320403172093212e-02 0.0000000000000000e+00  1.1790325761743090e-01 3.5267338237946685e-02 0.0000000000000000e+00  5.5920581613730300e-02 9.2855085577141047e-02 0.0000000000000000e+00  -9.0167661165481888e-02 -4.8259204697875029e-02 0.0000000000000000e+00  6.3123320363930993e-02 1.2192519583855655e-04 0.0000000000000000e+00  -5.7347502514001447e-02 9.4760151144393512e-02 0.0000000000000000e+00  6.9890560873570082e-02 9.9274680614458669e-02 0.0000000000000000e+00  -7.0138386505397471e-02 9.9071651431703614e-02 0.0000000000000000e+00  -6.4420257935990377e-02 -1.0531281745485423e-01 0.0000000000000000e+00  9.8755243804479087e-02 -6.3115899067200124e-02 0.0000000000000000e+00  6.3577045323467002e-02 -9.8534471585340094e-02 0.0000000000000000e+00  -9.4343040673670234e-02 -6.3551519690911260e-02 0.0000000000000000e+00  1.2274939392714984e-01 -5.1878519384311837e-02 0.0000000000000000e+00  -6.3570385381600050e-02 -1.2829722565364007e-01 0.0000000000000000e+00  -3.5725789960861072e-02 1.2783044162743579e-01 0.0000000000000000e+00  4.2150075792706757e-02 1.2416690747032733e-01 0.0000000000000000e+00  7.3870894834180342e-02 -1.0562005573493737e-01 0.0000000000000000e+00  -1.3719488428419424e-01 -4.5809190619969735e-02 0.0000000000000000e+00  8.4804559058322904e-02 5.0856900038316485e-02 0.0000000000000000e+00  1.3036059017379558e-03 -1.1325908625286375e-01 0.0000000000000000e+00  2.5635412803690028e-02 -1.4668642084307834e-01 0.0000000000000000e+00  -8.2670600181716805e-02 5.1722535508188255e-02 0.0000000000000000e+00  -1.0733229672703638e-01 3.2145633263714647e-03 0.0000000000000000e+00  -6.6323159828241704e-02 6.9549398571977825e-02 0.0000000000000000e+00  6.6472667088050788e-02 6.5130158342615652e-02 0.0000000000000000e+00  1.0469160152462732e-01 1.1420208818075216e-03 0.0000000000000000e+00  -6.3341662887456199e-02 8.8838215019692038e-02 0.0000000000000000e+00  6.3130223473804592e-02 8.9735758853642919e-02 0.0000000000000000e+00  -1.1413470226866500e-01 6.8939328130364033e-02 0.0000000000000000e+00  1.2201230180512740e-01 6.2818317326960846e-02 0.0000000000000000e+00  4.5650404534401034e-03 1.1998510938944337e-01 0.0000000000000000e+00  -2.9589113558592579e-02 -9.4885012210128322e-02 0.0000000000000000e+00  -8.4351326113108679e-02 5.0231131746723556e-02 0.0000000000000000e+00  -1.5288515385275155e-03 -1.7892226599775039e-02 0.0000000000000000e+00  1.3264829677823767e-01 -6.7702697394239328e-02 0.0000000000000000e+00  1.4057314077556846e-01 1.2438238647343039e-02 0.0000000000000000e+00  3.3629422814115552e-02 -8.6778028646637057e-02 0.0000000000000000e+00  -1.3965796943885050e-01 1.7440597542752505e-02 0.0000000000000000e+00  7.0993288569476440e-02 -1.3579023563412543e-01 0.0000000000000000e+00  8.8926917302110206e-02 -8.8571943975336256e-02 0.0000000000000000e+00  -8.9252419126901461e-02 -9.2121809029164559e-02 0.0000000000000000e+00  8.1826307303710974e-02 -1.5886148847329359e-02 0.0000000000000000e+00  -8.3270990844768134e-02 -3.4484933102744975e-02 0.0000000000000000e+00  -8.4554818433303994e-02 -1.3924918877614672e-02 0.0000000000000000e+00  -1.2959062846765909e-01 -6.5621984463185484e-02 0.0000000000000000e+00  -7.7677183421023172e-02 1.6624622990352642e-02 0.0000000000000000e+00  4.3806463774598318e-03 -1.5098770645965146e-01 0.0000000000000000e+00  8.6869569878585406e-02 -3.4975711894385829e-02 0.0000000000000000e+00  1.4405978615135753e-01 -2.5299789532420375e-02 0.0000000000000000e+00  2.1495149736607738e-02 5.9676926031687678e-02 0.0000000000000000e+00  -6.9112053763641143e-02 -1.3521820339483048e-01 0.0000000000000000e+00  7.8110741913709716e-02 1.4219517058191017e-02 0.0000000000000000e+00  7.2346771817301925e-02 2.8075576857344541e-02 0.0000000000000000e+00  -4.8102901297988592e-03 1.2362880955824249e-01 0.0000000000000000e+00  7.8926246233108885e-02 9.1291799529692200e-02 0.0000000000000000e+00  -4.1747394655660124e-02 8.8305397172227212e-02 0.0000000000000000e+00  -7.1542392873137961e-02 2.9348387054426259e-02 0.0000000000000000e+00  -1.1309819480144706e-01 6.5190290943123938e-02 0.0000000000000000e+00  4.8940271402431935e-02 6.4555725596791430e-02 0.0000000000000000e+00  4.9783627286315215e-03 1.5071449140266235e-01 0.0000000000000000e+00  1.5927304725512650e-02 -8.5080949748447779e-02 0.0000000000000000e+00  9.0263306222518991e-02 4.3967445261601873e-02 0.0000000000000000e+00  4.3480924084704449e-02 -6.0422668014598439e-02 0.0000000000000000e+00  -1.1263570505504858e-01 -2.9606137745604531e-03 0.0000000000000000e+00  -2.1439817461693902e-02 -1.4894526717377718e-01 0.0000000000000000e+00  -6.8566969005836545e-02 1.1407806513408446e-01 0.0000000000000000e+00  7.0825580519399092e-02 1.0469480817420557e-01 0.0000000000000000e+00  -1.4518927628436176e-01 -1.5104909580774586e-02 0.0000000000000000e+00  -5.0498437163080272e-02 -6.3615413956635766e-02 0.0000000000000000e+00  2.9486523648489860e-03 1.1534834848790629e-01 0.0000000000000000e+00  4.0966688193392359e-02 8.2656403998908182e-02 0.0000000000000000e+00  -5.2140794503039802e-02 -4.5712002496716055e-03 0.0000000000000000e+00  -1.1452499805658813e-01 -7.9632243168863720e-02 0.0000000000000000e+00  -5.3277526821389531e-02 -8.9280979791168349e-02 0.0000000000000000e+00  4.9917424170403832e-02 -5.9492044969958781e-02 0.0000000000000000e+00  -4.5949111824774375e-02 6.3983426951675970e-02 0.0000000000000000e+00  -8.1682381966834888e-02 9.2837447515499161e-02 0.0000000000000000e+00  8.1207095564562612e-02 9.0305025563525834e-02 0.0000000000000000e+00  -5.7892044012109782e-02 -5.2211369930576651e-02 0.0000000000000000e+00  5.7809149830675872e-02 -5.0092793673445282e-02 0.0000000000000000e+00  1.0887059233875691e-01 6.0547812684652799e-02 0.0000000000000000e+00  -1.7858136373127650e-02 9.2949271921125454e-02 0.0000000000000000e+00  -4.8092974851490855e-03 1.0224045973174860e-01 0.0000000000000000e+00  -7.9054890154102289e-02 9.1599490472661665e-02 0.0000000000000000e+00  -4.2145509964328212e-02 8.9736326222392165e-02 0.0000000000000000e+00  1.0597235994966142e-01 -7.8815920698509165e-03 0.0000000000000000e+00  1.1453037696461928e-01 5.8645561371172245e-02 0.0000000000000000e+00  8.8282484071091724e-02 -5.9787772013546008e-02 0.0000000000000000e+00  -3.3865521828903664e-02 -6.9413537281808338e-02 0.0000000000000000e+00  -1.1155760724937579e-02 -8.0530266154432886e-02 0.0000000000000000e+00  3.3448614281203021e-02 -6.0791145738234763e-02 0.0000000000000000e+00  5.8160761579415146e-02 -3.4102922234113264e-02 0.0000000000000000e+00  -5.4222042451427484e-02 4.4662914871013787e-02 0.0000000000000000e+00  5.3066908630102036e-02 4.0840999552207442e-02 0.0000000000000000e+00  -8.6691458639336152e-02 7.1192688383688474e-02 0.0000000000000000e+00  -5.8335237440363875e-02 -3.3868717226089980e-02 0.0000000000000000e+00  -4.9466795603274598e-02 -1.2656727008605625e-01 0.0000000000000000e+00  -1.3160552321590185e-01 4.6182913212382437e-02 0.0000000000000000e+00  1.1492212652692955e-01 -8.6028042729791976e-02 0.0000000000000000e+00  1.2030694421530636e-01 -5.3646899019008265e-02 0.0000000000000000e+00  4.9130646857649674e-02 7.5013361481419794e-02 0.0000000000000000e+00  -6.1959545843839378e-02 4.9596823461911617e-03 0.0000000000000000e+00  -8.7995146952356426e-02 -1.1667042690370535e-01 0.0000000000000000e+00  6.3218283440310719e-02 -1.2762839739287038e-01 0.0000000000000000e+00  -1.3448323964336367e-01 -5.7694602709459685e-03 0.0000000000000000e+00  8.7796487359616968e-02 -1.1326155554391162e-01 0.0000000000000000e+00  -1.0909586648513277e-01 5.5793737936842405e-02 0.0000000000000000e+00  1.2201142308403370e-01 -8.3702168646846056e-02 0.0000000000000000e+00  6.2489814440496443e-02 -4.2852410982842874e-03 0.0000000000000000e+00  -1.1359085872875943e-01 -8.5219510033219467e-02 0.0000000000000000e+00  -1.6861551950327396e-02 -1.2642311988676136e-01 0.0000000000000000e+00  1.3645230700924449e-01 3.6312332130498275e-02 0.0000000000000000e+00  1.8525700577585021e-02 8.3196254773893169e-02 0.0000000000000000e+00  -3.0560267863030458e-02 -1.2356792873828951e-01 0.0000000000000000e+00  -8.9906460008997630e-02 -1.2215131254608604e-01 0.0000000000000000e+00  -1.1553716054627053e-01 2.0172750833957056e-02 0.0000000000000000e+00  2.1368752435613680e-03 -6.3040736587526416e-02 0.0000000000000000e+00  1.3245373316692932e-01 -9.5641114287987172e-03 0.0000000000000000e+00  1.8571736874655791e-02 -1.2618019358980326e-01 0.0000000000000000e+00  1.3194137972895448e-01 -1.6573609784337549e-02 0.0000000000000000e+00  -6.8748098513822353e-02 -3.0141341227722970e-03 0.0000000000000000e+00  3.7983062010820634e-02 9.4453993353293741e-02 0.0000000000000000e+00  6.0165007685197308e-02 3.4778346073314217e-03 0.0000000000000000e+00  1.1542357917265401e-01 1.6939822318754599e-02 0.0000000000000000e+00  5.4720163812917222e-02 1.3646437728546867e-01 0.0000000000000000e+00  -1.3342149171694021e-02 1.0353296034647208e-01 0.0000000000000000e+00  4.6661209741330076e-02 2.7730013819528932e-02 0.0000000000000000e+00  1.0064443245190474e-01 7.0503091238180979e-02 0.0000000000000000e+00  -4.6152789375006921e-02 2.7423690976124033e-02 0.0000000000000000e+00  1.9617558050452565e-03 1.4141860201642786e-01 0.0000000000000000e+00  -2.2623811876020708e-02 -6.1960307003373835e-02 0.0000000000000000e+00  -1.2812969684049805e-01 -7.7848714862283050e-02 0.0000000000000000e+00  -3.9181080037282323e-02 1.4776961891359969e-01 0.0000000000000000e+00  -1.6587466125854700e-02 8.3077087573161776e-02 0.0000000000000000e+00  9.1807515202717446e-02 -1.1678945062051442e-01 0.0000000000000000e+00  3.9244218701498926e-02 -1.0297558455164574e-01 0.0000000000000000e+00  -8.5824954418839194e-02 -9.8882940221769272e-02 0.0000000000000000e+00  -1.4104742674282142e-01 -4.2202962256389233e-02 0.0000000000000000e+00  -1.3890205998235500e-01 -1.2251830809957839e-02 0.0000000000000000e+00  -1.1933469750816023e-01 -4.2904546660302773e-02 0.0000000000000000e+00  6.0845433380909204e-02 1.1138311592674044e-01 0.0000000000000000e+00  -1.0152093989094868e-01 4.8854071427944346e-02 0.0000000000000000e+00  -4.8000256162217696e-02 -1.4593136548009741e-01 0.0000000000000000e+00  -3.7204775947003547e-02 4.3882809134774103e-02 0.0000000000000000e+00  -1.1745480015643835e-01 -4.8810592467336045e-02 0.0000000000000000e+00  -6.2642547063616744e-02 8.1953448826515826e-02 0.0000000000000000e+00  -6.9275701477290771e-02 8.5111098009392552e-02 0.0000000000000000e+00  2.5412934100362623e-02 1.0685968426044255e-01 0.0000000000000000e+00  -5.4095915957641010e-02 -1.4541542199379233e-02 0.0000000000000000e+00  5.6370852522867256e-02 -1.3311355961596893e-01 0.0000000000000000e+00  5.0604214699899270e-03 -1.3223033102451992e-01 0.0000000000000000e+00  2.9203792199295062e-02 -1.5075669530301655e-01 0.0000000000000000e+00  3.6860962498053887e-02 4.1429534589531428e-02 0.0000000000000000e+00  1.0270349182341094e-01 -8.7283263215120588e-02 0.0000000000000000e+00  -6.1587861882488028e-02 3.5907559013864561e-02 0.0000000000000000e+00  3.1481041293891746e-02 6.5308570670342500e-02 0.0000000000000000e+00  8.6927040608734713e-02 8.0130578121549362e-02 0.0000000000000000e+00  5.0054649757210398e-02 -1.7117144244212172e-02 0.0000000000000000e+00  1.2811663540279819e-01 4.7980046586154484e-02 0.0000000000000000e+00  1.0469540271427806e-01 8.1082013869866229e-02 0.0000000000000000e+00  -5.7143720407683750e-02 -4.9116765487920891e-02 0.0000000000000000e+00  5.0149727066087904e-02 1.3963710765383277e-02 0.0000000000000000e+00  -8.5317010113805672e-02 -7.1616397860156606e-03 0.0000000000000000e+00  -2.8819864671694572e-02 5.3968949889476300e-02 0.0000000000000000e+00  3.3491146026005829e-02 5.6039393886385055e-02 0.0000000000000000e+00  1.6536490802560304e-02 -5.6829769712213311e-02 0.0000000000000000e+00  -7.4558782291301931e-02 9.5879727762701400e-0