<?xml version="1.0"?>
<VTKFile type="UnstructuredGrid"  version="0.1"  >
<UnstructuredGrid>
<Piece  NumberOfPoints="1890" NumberOfCells="3574">
<Points>
<DataArray  type="Float64"  NumberOfComponents="3"  format="ascii">1 0 0  0.9977668786231532 0.06679263374512155 0  0.9910774881547801 0.1332869553737788 0  0.9799617050365869 0.1991859851038361 0  0.9644691750543766 0.264195401871286 0  0.9446690916079188 0.3280248578395691 0  0.9206498866764288 0.3903892751634948 0  0.8925188358598812 0.4510101192161018 0  0.8604015792601394 0.5096166425919174 0  0.8244415603417603 0.5659470943305952 0  0.784799385278661 0.6197498889602449 0  0.7416521056479576 0.6707847301392235 0  0.6951924276746423 0.7188236838779293 0  0.6456278515588024 0.7636521965473321 0  0.5931797447293553 0.8050700531275629 0  0.5380823531633727 0.842892271416797 0  0.4805817551866838 0.8769499282066715 0  0.420934762428335 0.9070909137343407 0  0.3594077728375128 0.9331806110416025 0  0.2962755808856342 0.9551024972069124 0  0.2318201502675284 0.9727586637650372 0  0.1663293545831299 0.9860702539900286 0  0.1000956916240984 0.994977815088504 0  0.03341497700767464 0.9994415637302546 0  -0.03341497700767452 0.9994415637302546 0  -0.1000956916240983 0.994977815088504 0  -0.16632935458313 0.9860702539900286 0  -0.2318201502675281 0.9727586637650372 0  -0.2962755808856338 0.9551024972069124 0  -0.3594077728375129 0.9331806110416025 0  -0.4209347624283349 0.9070909137343408 0  -0.4805817551866837 0.8769499282066716 0  -0.5380823531633726 0.8428922714167971 0  -0.5931797447293552 0.805070053127563 0  -0.6456278515588024 0.7636521965473321 0  -0.6951924276746423 0.7188236838779293 0  -0.7416521056479576 0.6707847301392235 0  -0.784799385278661 0.6197498889602449 0  -0.8244415603417601 0.5659470943305954 0  -0.8604015792601392 0.5096166425919177 0  -0.8925188358598811 0.4510101192161021 0  -0.9206498866764287 0.3903892751634951 0  -0.9446690916079189 0.3280248578395689 0  -0.9644691750543765 0.2641954018712862 0  -0.9799617050365867 0.1991859851038363 0  -0.99107748815478 0.133286955373779 0  -0.9977668786231532 0.0667926337451217 0  -1 -3.216245299353273e-16 0  -0.9977668786231532 -0.06679263374512145 0  -0.9910774881547801 -0.1332869553737783 0  -0.9799617050365869 -0.1991859851038361 0  -0.9644691750543766 -0.264195401871286 0  -0.9446690916079188 -0.3280248578395691 0  -0.9206498866764288 -0.3903892751634949 0  -0.8925188358598815 -0.4510101192161015 0  -0.8604015792601394 -0.5096166425919175 0  -0.8244415603417605 -0.5659470943305949 0  -0.7847993852786611 -0.6197498889602446 0  -0.7416521056479575 -0.6707847301392236 0  -0.6951924276746424 -0.7188236838779292 0  -0.6456278515588025 -0.7636521965473319 0  -0.593179744729355 -0.8050700531275631 0  -0.5380823531633728 -0.842892271416797 0  -0.4805817551866835 -0.8769499282066716 0  -0.4209347624283351 -0.9070909137343407 0  -0.3594077728375134 -0.9331806110416024 0  -0.296275580885634 -0.9551024972069124 0  -0.2318201502675288 -0.9727586637650371 0  -0.1663293545831301 -0.9860702539900286 0  -0.1000956916240988 -0.994977815088504 0  -0.03341497700767455 -0.9994415637302546 0  0.03341497700767418 -0.9994415637302546 0  0.1000956916240984 -0.994977815088504 0  0.1663293545831297 -0.9860702539900286 0  0.2318201502675284 -0.9727586637650372 0  0.2962755808856337 -0.9551024972069125 0  0.3594077728375122 -0.9331806110416029 0  0.4209347624283348 -0.9070909137343408 0  0.4805817551866832 -0.8769499282066718 0  0.5380823531633725 -0.8428922714167971 0  0.5931797447293548 -0.8050700531275633 0  0.6456278515588023 -0.7636521965473321 0  0.6951924276746418 -0.7188236838779297 0  0.7416521056479575 -0.6707847301392235 0  0.7847993852786612 -0.6197498889602446 0  0.8244415603417603 -0.5659470943305952 0  0.8604015792601392 -0.5096166425919179 0  0.8925188358598808 -0.4510101192161026 0  0.9206498866764287 -0.3903892751634952 0  0.9446690916079188 -0.328024857839569 0  0.9644691750543765 -0.2641954018712863 0  0.9799617050365869 -0.199185985103836 0  0.99107748815478 -0.1332869553737791 0  0.9977668786231532 -0.06679263374512227 0  0.5766044443118978 0.06427876096865393 0  0.6 0 0  0.5766044443118978 -0.06427876096865397 0  0.517364817766693 -0.09848077530122082 0  0.45 -0.08660254037844384 0  0.4060307379214091 -0.03420201433256687 0  0.4060307379214091 0.03420201433256689 0  0.45 0.08660254037844388 0  0.5173648177666931 0.0984807753012208 0  -0.2965686451888956 -3.216245299353273e-16 0  0.02995799338450739 0.4463820650390996 0  0.02995799338450775 -0.4463820650390995 0  -0.3955719483658615 0.4150379846043291 0  -0.4169105514339966 -0.4032046590493156 0  -0.6262911543602625 0.1406750128378851 0  0.4099697941225568 0.4649562806856727 0  0.4099697941225571 -0.4649562806856725 0  0.05127126517818126 0.08817401780249684 0  -0.1831682142260297 -0.6686721086721615 0  -0.1831682142260294 0.6686721086721619 0  -0.6520464330424147 -0.1814832365373373 0  0.2091634468672813 0.6766366337832459 0  0.1883365569596445 -0.6875396105945327 0  0.2159040325791659 -0.2383848214817743 0  -0.1744543149380852 0.2484563274625736 0  -0.06716122455575962 -0.1748068953293204 0  0.2513036159616241 0.2568747514607447 0  0.6477088057990819 -0.3356515765545967 0  0.6477088057990816 0.3356515765545969 0  -0.6429348001755962 0.3888615828205575 0  -0.4176911395802332 -0.639529979133491 0  -0.6487907438517166 -0.4141725603623674 0  -0.4382859878713386 0.638471665172117 0  -0.1883060146004528 -0.3712832336183189 0  -0.4093410988944064 0.1924263534676403 0  0.7784262897673441 0.1313041761919452 0  0.7692266286696862 -0.1588101168391893 0  -0.3273037620396328 -0.2103878546156154 0  -0.1798454764806241 0.458542771899162 0  0.4017553023960708 -0.6784121172515977 0  -0.7833260349743965 -0.008879310202590557 0  -0.4794205971237819 -0.08072648637784163 0  0.4174224539707952 0.6731117436251652 0  0.01086072875173043 0.7779172259216657 0  0.5993482410529842 0.529941331081667 0  0.5800727149699484 -0.5610028828936883 0  -0.002913066865704084 -0.7863475463243047 0  0.4644692980420977 0.281953550413786 0  0.4644692980420981 -0.281953550413786 0  0.2204900511885566 0.4449044634307799 0  0.2180189937406393 -0.4954600835645215 0  0.2060327886352148 -0.03858259979572255 0  -0.7808481637664745 0.2422213783127347 0  0.06990549121986947 0.2690208389553115 0  -0.1124194025531066 0.00373323440863213 0  -0.2838372182411008 -0.5216724848805774 0  0.03130371177689495 -0.6180840640285581 0  -0.7762218745645899 -0.2989562490519654 0  0.05214597457400483 0.613977754767665 0  -0.4956543915012957 -0.251170934148539 0  -0.5275381827985767 -0.5210032025475994 0  -0.5301696116286927 0.5051064981533095 0  -0.16809888692682 -0.8270183856644552 0  -0.3240121076586466 0.7657967722683376 0  -0.1438288839385778 0.8257307941019953 0  -0.2998557134907758 0.5617360107302967 0  0.1684367173033988 0.8286804545679113 0  -0.6250110225296729 -0.01789111552180164 0  -0.3137113036339798 -0.7609856814941814 0  -0.1170075000122383 -0.518790272865666 0  0.05108989091758273 -0.06990257622780319 0  -0.5427150590508653 0.270931066435428 0  0.1429967624415053 -0.8342737229435346 0  0.2997239097253987 -0.7923562376371267 0  0.2676893696803808 0.1031671400466477 0  0.3261287713905652 -0.3403712992466087 0  0.7950089908879098 0.2858943947941835 0  0.3151824699376609 0.7865115564528017 0  0.3115634426834656 0.5726907027982669 0  0.704039443019545 -0.4753841151972395 0  0.7470219429290336 -0.01290298646666185 0  -0.8321235529347469 -0.1551998530807213 0  0.05709269783870959 -0.2835250962999872 0  -0.2021447182543711 -0.1140175740005167 0  -0.05854661192244001 0.3332686099592011 0  -0.4944752806394075 0.06870205217856792 0  0.6465785626300955 0.1909460270059954 0  0.6150172073263744 -0.1992156468339642 0  -0.08321382237958147 0.5651617303365446 0  -0.6720985235143602 0.5299695767353035 0  0.3081627102340266 -0.1336818188805801 0  0.7954182263431147 -0.306979485853048 0  -0.0801862748968569 0.1421281857867356 0  -0.2704290205461716 0.3511058548763765 0  -0.2733876063765904 0.1428439818287992 0  -0.6630142665634642 -0.5525422555121322 0  0.7250705628492369 0.4580712316052048 0  0.5291222693526491 0.4008241947929737 0  0.543461903937986 -0.42718897847992 0  -0.5796080761878384 0.6375025331582558 0  -0.5686737890628571 -0.6510435601866913 0  0.1471374478051752 -0.382217095965624 0  0.367570301927055 0.1909193223550535 0  0.8716954478736112 0.02914395839180125 0  0.3487459623057126 0.3471068582357988 0  0.1543099947611301 0.1689404724154097 0  -0.07297109638128209 -0.3068109338541753 0  0.2917188534562402 -0.6051822784871949 0  -0.2024804285799746 -0.2430406644266693 0  -0.7781944430042567 0.3778986247265116 0  -0.8494742869240901 0.1173360134018405 0  -0.7720870174071235 -0.4231153023082534 0  -0.449110317890587 -0.7582468751604555 0  0.5545923664877855 0.6602415200552888 0  0.5344562863167422 -0.6858381270857777 0  0.4766344790775262 0.566780609122759 0  -0.445772660902635 0.7601337067632379 0  -0.6616262409933745 0.2552874992358464 0  0.1653545872376546 0.5583524484327292 0  -0.4028773004059317 -0.5214149604035093 0  -0.2990776467406227 -0.6432205051811133 0  0.1120905589734103 -0.1750840530986415 0  0.06398953478431954 0.8829484618446889 0  -0.5251433924072202 0.3874134656159851 0  -0.6099143365137073 -0.2972611803339155 0  -0.04678747567896177 0.6762313351705379 0  -0.533024901227188 -0.4050045909030676 0  0.1246725721343765 0.3745355098341986 0  -0.3000083100373507 -0.4058635916290634 0  -0.06655528087218812 -0.8836517798731542 0  -0.4088769106504622 0.5282941447433156 0  -0.7345489526308654 0.09712579222418664 0  0.1081465349890011 -0.5316255335782825 0  0.8804353520695445 -0.1485109638682795 0  -0.3713419913383989 0.08543731094255294 0  -0.43252237558797 0.3055918258709063 0  0.1125429094389743 0.7322321616258178 0  -0.8927041854393205 -0.02984635711944513 0  -0.06589562952638969 -0.6859291199262957 0  -0.7331201394770802 -0.1069200385835311 0  -0.08867729710384351 -0.414111852980487 0  -0.0447872543388
[...]
<PointData  Vectors="f_25"> 
<DataArray  type="Float64"  Name="f_25"  NumberOfComponents="3" format="ascii">0.0000000000000000e+00 0.0000000000000000e+00 0.0000000000000000e+00  0.0000000000000000e+00 0.0000000000000000e+00 0.0000000000000000e+00  0.0000000000000000e+00 0.0000000000000000e+00 0.0000000000000000e+00  0.0000000000000000e+00 0.0000000000000000e+00 0.0000000000000000e+00  0.0000000000000000e+00 0.0000000000000000e+00 0.0000000000000000e+00  0.0000000000000000e+00 0.0000000000000000e+00 0.0000000000000000e+00  0.0000000000000000e+00 0.0000000000000000e+00 0.0000000000000000e+00  0.0000000000000000e+00 0.0000000000000000e+00 0.0000000000000000e+00  0.0000000000000000e+00 0.0000000000000000e+00 0.0000000000000000e+00  0.0000000000000000e+00 0.0000000000000000e+00 0.0000000000000000e+00  0.0000000000000000e+00 0.0000000000000000e+00 0.0000000000000000e+00  0.0000000000000000e+00 0.0000000000000000e+00 0.0000000000000000e+00  0.0000000000000000e+00 0.0000000000000000e+00 0.0000000000000000e+00  0.0000000000000000e+00 0.0000000000000000e+00 0.0000000000000000e+00  0.0000000000000000e+00 0.0000000000000000e+00 0.0000000000000000e+00  0.0000000000000000e+00 0.0000000000000000e+00 0.0000000000000000e+00  0.0000000000000000e+00 0.0000000000000000e+00 0.0000000000000000e+00  0.0000000000000000e+00 0.0000000000000000e+00 0.0000000000000000e+00  0.0000000000000000e+00 0.0000000000000000e+00 0.0000000000000000e+00  0.0000000000000000e+00 0.0000000000000000e+00 0.0000000000000000e+00  0.0000000000000000e+00 0.0000000000000000e+00 0.0000000000000000e+00  0.0000000000000000e+00 0.0000000000000000e+00 0.0000000000000000e+00  0.0000000000000000e+00 0.0000000000000000e+00 0.0000000000000000e+00  0.0000000000000000e+00 0.0000000000000000e+00 0.0000000000000000e+00  0.0000000000000000e+00 0.0000000000000000e+00 0.0000000000000000e+00  0.0000000000000000e+00 0.0000000000000000e+00 0.0000000000000000e+00  0.0000000000000000e+00 0.0000000000000000e+00 0.0000000000000000e+00  0.0000000000000000e+00 0.0000000000000000e+00 0.0000000000000000e+00  0.0000000000000000e+00 0.0000000000000000e+00 0.0000000000000000e+00  0.0000000000000000e+00 0.0000000000000000e+00 0.0000000000000000e+00  0.0000000000000000e+00 0.0000000000000000e+00 0.0000000000000000e+00  0.0000000000000000e+00 0.0000000000000000e+00 0.0000000000000000e+00  0.0000000000000000e+00 0.0000000000000000e+00 0.0000000000000000e+00  0.0000000000000000e+00 0.0000000000000000e+00 0.0000000000000000e+00  0.0000000000000000e+00 0.0000000000000000e+00 0.0000000000000000e+00  0.0000000000000000e+00 0.0000000000000000e+00 0.0000000000000000e+00  0.0000000000000000e+00 0.0000000000000000e+00 0.0000000000000000e+00  0.0000000000000000e+00 0.0000000000000000e+00 0.0000000000000000e+00  0.0000000000000000e+00 0.0000000000000000e+00 0.0000000000000000e+00  0.0000000000000000e+00 0.0000000000000000e+00 0.0000000000000000e+00  0.0000000000000000e+00 0.0000000000000000e+00 0.0000000000000000e+00  0.0000000000000000e+00 0.0000000000000000e+00 0.0000000000000000e+00  0.0000000000000000e+00 0.0000000000000000e+00 0.0000000000000000e+00  0.0000000000000000e+00 0.0000000000000000e+00 0.0000000000000000e+00  0.0000000000000000e+00 0.0000000000000000e+00 0.0000000000000000e+00  0.0000000000000000e+00 0.0000000000000000e+00 0.0000000000000000e+00  0.0000000000000000e+00 0.0000000000000000e+00 0.0000000000000000e+00  0.0000000000000000e+00 0.0000000000000000e+00 0.0000000000000000e+00  0.0000000000000000e+00 0.0000000000000000e+00 0.0000000000000000e+00  0.0000000000000000e+00 0.0000000000000000e+00 0.0000000000000000e+00  0.0000000000000000e+00 0.0000000000000000e+00 0.0000000000000000e+00  0.0000000000000000e+00 0.0000000000000000e+00 0.0000000000000000e+00  0.0000000000000000e+00 0.0000000000000000e+00 0.0000000000000000e+00  0.0000000000000000e+00 0.0000000000000000e+00 0.0000000000000000e+00  0.0000000000000000e+00 0.0000000000000000e+00 0.0000000000000000e+00  0.0000000000000000e+00 0.0000000000000000e+00 0.0000000000000000e+00  0.0000000000000000e+00 0.0000000000000000e+00 0.0000000000000000e+00  0.0000000000000000e+00 0.0000000000000000e+00 0.0000000000000000e+00  0.0000000000000000e+00 0.0000000000000000e+00 0.0000000000000000e+00  0.0000000000000000e+00 0.0000000000000000e+00 0.0000000000000000e+00  0.0000000000000000e+00 0.0000000000000000e+00 0.0000000000000000e+00  0.0000000000000000e+00 0.0000000000000000e+00 0.0000000000000000e+00  0.0000000000000000e+00 0.0000000000000000e+00 0.0000000000000000e+00  0.0000000000000000e+00 0.0000000000000000e+00 0.0000000000000000e+00  0.0000000000000000e+00 0.0000000000000000e+00 0.0000000000000000e+00  0.0000000000000000e+00 0.0000000000000000e+00 0.0000000000000000e+00  0.0000000000000000e+00 0.0000000000000000e+00 0.0000000000000000e+00  0.0000000000000000e+00 0.0000000000000000e+00 0.0000000000000000e+00  0.0000000000000000e+00 0.0000000000000000e+00 0.0000000000000000e+00  0.0000000000000000e+00 0.0000000000000000e+00 0.0000000000000000e+00  0.0000000000000000e+00 0.0000000000000000e+00 0.0000000000000000e+00  0.0000000000000000e+00 0.0000000000000000e+00 0.0000000000000000e+00  0.0000000000000000e+00 0.0000000000000000e+00 0.0000000000000000e+00  0.0000000000000000e+00 0.0000000000000000e+00 0.0000000000000000e+00  0.0000000000000000e+00 0.0000000000000000e+00 0.0000000000000000e+00  0.0000000000000000e+00 0.0000000000000000e+00 0.0000000000000000e+00  0.0000000000000000e+00 0.0000000000000000e+00 0.0000000000000000e+00  0.0000000000000000e+00 0.0000000000000000e+00 0.0000000000000000e+00  0.0000000000000000e+00 0.0000000000000000e+00 0.0000000000000000e+00  0.0000000000000000e+00 0.0000000000000000e+00 0.0000000000000000e+00  0.0000000000000000e+00 0.0000000000000000e+00 0.0000000000000000e+00  0.0000000000000000e+00 0.0000000000000000e+00 0.0000000000000000e+00  0.0000000000000000e+00 0.0000000000000000e+00 0.0000000000000000e+00  0.0000000000000000e+00 0.0000000000000000e+00 0.0000000000000000e+00  0.0000000000000000e+00 0.0000000000000000e+00 0.0000000000000000e+00  0.0000000000000000e+00 0.0000000000000000e+00 0.0000000000000000e+00  0.0000000000000000e+00 0.0000000000000000e+00 0.0000000000000000e+00  0.0000000000000000e+00 0.0000000000000000e+00 0.0000000000000000e+00  0.0000000000000000e+00 0.0000000000000000e+00 0.0000000000000000e+00  0.0000000000000000e+00 0.0000000000000000e+00 0.0000000000000000e+00  0.0000000000000000e+00 0.0000000000000000e+00 0.0000000000000000e+00  0.0000000000000000e+00 0.0000000000000000e+00 0.0000000000000000e+00  0.0000000000000000e+00 0.0000000000000000e+00 0.0000000000000000e+00  0.0000000000000000e+00 0.0000000000000000e+00 0.0000000000000000e+00  0.0000000000000000e+00 0.0000000000000000e+00 0.0000000000000000e+00  0.0000000000000000e+00 0.0000000000000000e+00 0.0000000000000000e+00  0.0000000000000000e+00 0.0000000000000000e+00 0.0000000000000000e+00  0.0000000000000000e+00 0.0000000000000000e+00 0.0000000000000000e+00  0.0000000000000000e+00 0.0000000000000000e+00 0.0000000000000000e+00  0.0000000000000000e+00 0.0000000000000000e+00 0.0000000000000000e+00  0.0000000000000000e+00 0.0000000000000000e+00 0.0000000000000000e+00  0.0000000000000000e+00 0.0000000000000000e+00 0.0000000000000000e+00  0.0000000000000000e+00 0.0000000000000000e+00 0.0000000000000000e+00  -2.4308691536324876e-05 -7.8870797783309507e-02 0.0000000000000000e+00  -1.0502160089800945e-01 1.9476517503208536e-02 0.0000000000000000e+00  1.0512978558268533e-01 1.9374576561058149e-02 0.0000000000000000e+00  -8.9971169835048229e-02 -8.1452695562727218e-02 0.0000000000000000e+00  8.6461321085213566e-02 -8.5328703821719559e-02 0.0000000000000000e+00  -2.6664142813049685e-02 -1.1622027407353608e-01 0.0000000000000000e+00  -7.4740431377136415e-02 6.6210500964028293e-02 0.0000000000000000e+00  7.4795501966056874e-02 6.6415000237399810e-02 0.0000000000000000e+00  -2.1253775633837863e-02 5.3069960842751493e-02 0.0000000000000000e+00  1.0249560576859668e-01 -2.5363435488788676e-02 0.0000000000000000e+00  -1.0250344925958725e-01 -2.5328461485333166e-02 0.0000000000000000e+00  3.1152609166950684e-02 -1.1001401259244213e-01 0.0000000000000000e+00  -9.0986308340693114e-02 3.1138974542139979e-02 0.0000000000000000e+00  9.1554650672064933e-02 2.7992561867656859e-02 0.0000000000000000e+00  4.1272587010931887e-02 7.6623535275329765e-02 0.0000000000000000e+00  -7.2627071150138944e-02 -3.6404148405955829e-02 0.0000000000000000e+00  5.0272226296819662e-02 4.2692176725935560e-03 0.0000000000000000e+00  -4.2246315790012298e-02 7.6956552461812808e-02 0.0000000000000000e+00  5.5883826833089879e-02 7.5979311569523963e-02 0.0000000000000000e+00  -5.5994653173376659e-02 7.5823564265595389e-02 0.0000000000000000e+00  -5.1096929700254340e-02 -8.3312297641749744e-02 0.0000000000000000e+00  7.7834236935612131e-02 -4.9511220729997987e-02 0.0000000000000000e+00  5.0298038347714291e-02 -7.7772387116795794e-02 0.0000000000000000e+00  -7.4279716048698916e-02 -4.9821383305807314e-02 0.0000000000000000e+00  9.8742467103459658e-02 -3.9946346873558886e-02 0.0000000000000000e+00  -5.1535757433982289e-02 -1.0286765761692564e-01 0.0000000000000000e+00  -2.9349296829613646e-02 1.0147214437396791e-01 0.0000000000000000e+00  3.4557489858449940e-02 9.8259775883789868e-02 0.0000000000000000e+00  5.9881822252843921e-02 -8.4052310830601995e-02 0.0000000000000000e+00  -1.1003864445988981e-01 -3.5391581297849889e-02 0.0000000000000000e+00  6.4812794592536027e-02 3.9077589839812125e-02 0.0000000000000000e+00  1.0285828484369215e-03 -8.9476881421624119e-02 0.0000000000000000e+00  2.0792083246709905e-02 -1.1799917053305473e-01 0.0000000000000000e+00  -6.3154623300826843e-02 3.9688863677504967e-02 0.0000000000000000e+00  -8.3377159668407669e-02 2.8116480601048238e-03 0.0000000000000000e+00  -5.1073842468492420e-02 5.2928631322883821e-02 0.0000000000000000e+00  5.0976781816670480e-02 4.9514560167892199e-02 0.0000000000000000e+00  8.1261606295957453e-02 1.1894536738834079e-03 0.0000000000000000e+00  -4.8642462302583588e-02 6.6424445570436780e-02 0.0000000000000000e+00  4.8488164330877284e-02 6.6917500791221274e-02 0.0000000000000000e+00  -8.8713498186031484e-02 5.5873046812551820e-02 0.0000000000000000e+00  9.5040109518648913e-02 5.0717397282729310e-02 0.0000000000000000e+00  2.8753087250561011e-03 1.0019173202298144e-01 0.0000000000000000e+00  -2.3292818537690739e-02 -7.4560823065278101e-02 0.0000000000000000e+00  -6.5796564858920423e-02 4.4107431179367787e-02 0.0000000000000000e+00  -1.1892796621975840e-03 -1.0224922792094400e-02 0.0000000000000000e+00  1.0613437605983538e-01 -5.3384281010499808e-02 0.0000000000000000e+00  1.1078676892327238e-01 1.0809723566802248e-02 0.0000000000000000e+00  2.6397243452728914e-02 -6.8028613048706457e-02 0.0000000000000000e+00  -1.1000651392887309e-01 1.4752920254181574e-02 0.0000000000000000e+00  5.7308919492990308e-02 -1.0890748477655504e-01 0.0000000000000000e+00  7.0474304755402159e-02 -6.9935488962072551e-02 0.0000000000000000e+00  -7.0822655436181214e-02 -7.2827156025256468e-02 0.0000000000000000e+00  6.3282919010216876e-02 -1.2154034517281283e-02 0.0000000000000000e+00  -6.4803527284146456e-02 -2.6697504079657763e-02 0.0000000000000000e+00  -6.5413003526038613e-02 -1.0620805241621067e-02 0.0000000000000000e+00  -1.0335257240193442e-01 -5.1725555546624481e-02 0.0000000000000000e+00  -5.9379312864664420e-02 1.2882772542257585e-02 0.0000000000000000e+00  3.5307909784806179e-03 -1.2104106565444089e-01 0.0000000000000000e+00  6.7683115797590079e-02 -2.7101215038606866e-02 0.0000000000000000e+00  1.1496116367186339e-01 -1.8902051124115006e-02 0.0000000000000000e+00  1.6573040358439494e-02 5.3763106364548736e-02 0.0000000000000000e+00  -5.5621364844254818e-02 -1.0827042357722524e-01 0.0000000000000000e+00  5.9748728974033508e-02 1.1047453782367565e-02 0.0000000000000000e+00  5.4997981607418915e-02 2.1513979361330295e-02 0.0000000000000000e+00  -1.3616735679117236e-03 9.9902470103019780e-02 0.0000000000000000e+00  5.9706478398292254e-02 7.1875684559244424e-02 0.0000000000000000e+00  -3.3650261373011733e-02 6.9216658704562325e-02 0.0000000000000000e+00  -5.4371338648056079e-02 2.2469506287650671e-02 0.0000000000000000e+00  -8.7634526720358638e-02 5.1303554583984882e-02 0.0000000000000000e+00  3.7973034581782687e-02 4.9219709912330427e-02 0.0000000000000000e+00  4.0719040879427090e-03 1.1850233344663996e-01 0.0000000000000000e+00  1.2485479871077659e-02 -6.6597655604996933e-02 0.0000000000000000e+00  7.0678332041729686e-02 3.9022668974424829e-02 0.0000000000000000e+00  3.5121771688359844e-02 -4.6014642616023831e-02 0.0000000000000000e+00  -8.9879663622515760e-02 4.6010227223088778e-04 0.0000000000000000e+00  -1.7376856683035010e-02 -1.1983586286076799e-01 0.0000000000000000e+00  -5.5212545434080440e-02 8.6710799611467521e-02 0.0000000000000000e+00  5.6665062198478854e-02 7.8479783359631461e-02 0.0000000000000000e+00  -1.1544998787468524e-01 -1.0911890777500283e-02 0.0000000000000000e+00  -3.9402412677085295e-02 -4.9566581439644146e-02 0.0000000000000000e+00  -4.0943519879388547e-04 9.1004104995276253e-02 0.0000000000000000e+00  3.2910117033644742e-02 6.4699624457696905e-02 0.0000000000000000e+00  -4.1552470358989922e-02 5.1069322008228280e-04 0.0000000000000000e+00  -9.2419857849328158e-02 -6.2851151079041850e-02 0.0000000000000000e+00  -4.3160067408053199e-02 -7.0300736922060333e-02 0.0000000000000000e+00  3.8893125203537118e-02 -4.6291801911605382e-02 0.0000000000000000e+00  -3.5728366516347143e-02 4.8879281377513788e-02 0.0000000000000000e+00  -6.3767392480954324e-02 7.0752753906590901e-02 0.0000000000000000e+00  6.3339246155095535e-02 6.8885305331945770e-02 0.0000000000000000e+00  -4.5052331727770005e-02 -4.0558817648370833e-02 0.0000000000000000e+00  4.4959634281211198e-02 -3.8885228179162179e-02 0.0000000000000000e+00  8.4765561743778362e-02 5.0584155698083035e-02 0.0000000000000000e+00  -1.1568138701250124e-02 7.1137681380078102e-02 0.0000000000000000e+00  -3.9439998535397780e-03 8.2262135430395983e-02 0.0000000000000000e+00  -6.0036248992830242e-02 7.1664512524367216e-02 0.0000000000000000e+00  -3.1148860921960845e-02 7.6166282388666989e-02 0.0000000000000000e+00  8.4639949813656343e-02 -3.2868179161323844e-03 0.0000000000000000e+00  8.8715790814116791e-02 4.6171492177818484e-02 0.0000000000000000e+00  7.1230947230365077e-02 -4.5927560803564201e-02 0.0000000000000000e+00  -2.6425092016540686e-02 -5.4101773074867521e-02 0.0000000000000000e+00  -8.7303552710949750e-03 -6.2928202254524598e-02 0.0000000000000000e+00  2.6025531127101310e-02 -4.7248527548066792e-02 0.0000000000000000e+00  4.4983147937943627e-02 -2.6314767287470814e-02 0.0000000000000000e+00  -4.0990053361207673e-02 3.3714066643029776e-02 0.0000000000000000e+00  4.0017100603936151e-02 3.0792886816526588e-02 0.0000000000000000e+00  -6.6662995509772727e-02 5.4686638488771901e-02 0.0000000000000000e+00  -4.5115230029605623e-02 -2.6130237903954672e-02 0.0000000000000000e+00  -3.9464666234136844e-02 -1.0070010411982135e-01 0.0000000000000000e+00  -1.0307345919370396e-01 3.7517751758912248e-02 0.0000000000000000e+00  9.1715366532186357e-02 -6.8149383960767751e-02 0.0000000000000000e+00  9.5213204967557113e-02 -4.2058788961485884e-02 0.0000000000000000e+00  3.7306759044462422e-02 6.4976029322748069e-02 0.0000000000000000e+00  -4.7220160395940639e-02 3.8688660014035039e-03 0.0000000000000000e+00  -7.0465107780607231e-02 -9.2988549724683442e-02 0.0000000000000000e+00  5.0570735650736345e-02 -1.0173830292758461e-01 0.0000000000000000e+00  -1.0590458601868885e-01 -3.9076419465919410e-03 0.0000000000000000e+00  7.0205693634056737e-02 -9.0148657974161980e-02 0.0000000000000000e+00  -8.5223597578862206e-02 4.7033312335875391e-02 0.0000000000000000e+00  9.8270037971114749e-02 -6.6298070260689471e-02 0.0000000000000000e+00  4.7817688090798956e-02 -3.2012347826973885e-03 0.0000000000000000e+00  -9.0576817184900682e-02 -6.7500841217602928e-02 0.0000000000000000e+00  -1.3420143796736462e-02 -1.0036027435156367e-01 0.0000000000000000e+00  1.0732186376450389e-01 3.0214620701242170e-02 0.0000000000000000e+00  1.5024549930402292e-02 6.6471398219811670e-02 0.0000000000000000e+00  -2.4812281281199770e-02 -9.8891217463191725e-02 0.0000000000000000e+00  -7.2598361457469382e-02 -9.7788197145581304e-02 0.0000000000000000e+00  -8.9799382899126076e-02 1.6157687299133420e-02 0.0000000000000000e+00  1.6547211810760763e-03 -4.8972626150450838e-02 0.0000000000000000e+00  1.0425910876125451e-01 -6.9246188630794703e-03 0.0000000000000000e+00  1.4776054500586732e-02 -1.0017032154155484e-01 0.0000000000000000e+00  1.0548160548463617e-01 -1.1197346113304746e-02 0.0000000000000000e+00  -5.2698846306114794e-02 -2.2044261539222272e-03 0.0000000000000000e+00  2.6860715945705754e-02 7.2602336352134034e-02 0.0000000000000000e+00  4.5841850077759476e-02 2.7332703385844533e-03 0.0000000000000000e+00  8.9718434233770836e-02 1.3633480564273959e-02 0.0000000000000000e+00  4.3332885009940481e-02 1.0395441435878619e-01 0.0000000000000000e+00  -9.3409369897162666e-03 8.8152943228225103e-02 0.0000000000000000e+00  3.5002009254942852e-02 2.0853053948243529e-02 0.0000000000000000e+00  7.7606550301530755e-02 5.4713914273072303e-02 0.0000000000000000e+00  -3.4625193816660911e-02 2.0624812432182633e-02 0.0000000000000000e+00  1.5914787799303132e-03 1.1042520544898703e-01 0.0000000000000000e+00  -1.8247893137867902e-02 -4.7218106712084443e-02 0.0000000000000000e+00  -1.0294582573963973e-01 -6.1595264557772353e-02 0.0000000000000000e+00  -3.1081503055070410e-02 1.1243242989308601e-01 0.0000000000000000e+00  -1.3471721897337733e-02 6.6439523463750386e-02 0.0000000000000000e+00  7.4226421986982163e-02 -9.3393404561068122e-02 0.0000000000000000e+00  3.1842305015441344e-02 -8.1667741304502786e-02 0.0000000000000000e+00  -6.9496312268355967e-02 -7.8549016592413423e-02 0.0000000000000000e+00  -1.1247907517255443e-01 -3.2788498981411583e-02 0.0000000000000000e+00  -1.1088850586200504e-01 -8.0331054948690056e-03 0.0000000000000000e+00  -9.5948433746198089e-02 -3.2517252916514479e-02 0.0000000000000000e+00  4.9546565674542617e-02 8.6564998402244325e-02 0.0000000000000000e+00  -7.8181999889251216e-02 3.8046962336958055e-02 0.0000000000000000e+00  -3.8791320754802960e-02 -1.1722717789370213e-01 0.0000000000000000e+00  -2.8279296876157194e-02 3.3079755067107031e-02 0.0000000000000000e+00  -9.2739666473479684e-02 -3.8179313984576711e-02 0.0000000000000000e+00  -4.8985220844196313e-02 5.9465529839420640e-02 0.0000000000000000e+00  -5.4251282755772727e-02 6.5014513761013429e-02 0.0000000000000000e+00  1.7614187945224621e-02 8.9077121347105978e-02 0.0000000000000000e+00  -4.1478091771916629e-02 -1.1096992680574196e-02 0.0000000000000000e+00  4.5710425864944025e-02 -1.0682398082579586e-01 0.0000000000000000e+00  4.1288460185641279e-03 -1.0608403994204470e-01 0.0000000000000000e+00  2.3565578195917168e-02 -1.2103089932388264e-01 0.0000000000000000e+00  2.7931995005996229e-02 3.1174865708170959e-02 0.0000000000000000e+00  8.3014850349660177e-02 -6.9011828503725114e-02 0.0000000000000000e+00  -4.8270219466865320e-02 3.3541970375678777e-02 0.0000000000000000e+00  2.3749595690843787e-02 4.6076001330482959e-02 0.0000000000000000e+00  6.7125097859642782e-02 6.1461889263580295e-02 0.0000000000000000e+00  3.8389055494782977e-02 -1.3090027656892581e-02 0.0000000000000000e+00  9.9991291129133297e-02 3.8544680473733446e-02 0.0000000000000000e+00  8.0753853376073395e-02 6.4211981442906865e-02 0.0000000000000000e+00  -4.6040646169776461e-02 -3.6700135079040082e-02 0.0000000000000000e+00  3.7844792257106949e-02 1.0607779564619422e-02 0.0000000000000000e+00  -6.8114963702318745e-02 -2.2714848722036247e-03 0.0000000000000000e+00  -2.2591654853905054e-02 4.1700882111212999e-02 0.0000000000000000e+00  2.6180749476437858e-02 4.3098539692194064e-02 0.0000000000000000e+00  1.2829027409648436e-02 -4.4071767511917818e-02 0.0000000000000000e+00  -5.8953448674064962e-02 7.2100037781588466e-02