<?xml version="1.0"?>
<VTKFile type="UnstructuredGrid"  version="0.1"  >
<UnstructuredGrid>
<Piece  NumberOfPoints="1890" NumberOfCells="3574">
<Points>
<DataArray  type="Float64"  NumberOfComponents="3"  format="ascii">1 0 0  0.9977668786231532 0.06679263374512155 0  0.9910774881547801 0.1332869553737788 0  0.9799617050365869 0.1991859851038361 0  0.9644691750543766 0.264195401871286 0  0.9446690916079188 0.3280248578395691 0  0.9206498866764288 0.3903892751634948 0  0.8925188358598812 0.4510101192161018 0  0.8604015792601394 0.5096166425919174 0  0.8244415603417603 0.5659470943305952 0  0.784799385278661 0.6197498889602449 0  0.7416521056479576 0.6707847301392235 0  0.6951924276746423 0.7188236838779293 0  0.6456278515588024 0.7636521965473321 0  0.5931797447293553 0.8050700531275629 0  0.5380823531633727 0.842892271416797 0  0.4805817551866838 0.8769499282066715 0  0.420934762428335 0.9070909137343407 0  0.3594077728375128 0.9331806110416025 0  0.2962755808856342 0.9551024972069124 0  0.2318201502675284 0.9727586637650372 0  0.1663293545831299 0.9860702539900286 0  0.1000956916240984 0.994977815088504 0  0.03341497700767464 0.9994415637302546 0  -0.03341497700767452 0.9994415637302546 0  -0.1000956916240983 0.994977815088504 0  -0.16632935458313 0.9860702539900286 0  -0.2318201502675281 0.9727586637650372 0  -0.2962755808856338 0.9551024972069124 0  -0.3594077728375129 0.9331806110416025 0  -0.4209347624283349 0.9070909137343408 0  -0.4805817551866837 0.8769499282066716 0  -0.5380823531633726 0.8428922714167971 0  -0.5931797447293552 0.805070053127563 0  -0.6456278515588024 0.7636521965473321 0  -0.6951924276746423 0.7188236838779293 0  -0.7416521056479576 0.6707847301392235 0  -0.784799385278661 0.6197498889602449 0  -0.8244415603417601 0.5659470943305954 0  -0.8604015792601392 0.5096166425919177 0  -0.8925188358598811 0.4510101192161021 0  -0.9206498866764287 0.3903892751634951 0  -0.9446690916079189 0.3280248578395689 0  -0.9644691750543765 0.2641954018712862 0  -0.9799617050365867 0.1991859851038363 0  -0.99107748815478 0.133286955373779 0  -0.9977668786231532 0.0667926337451217 0  -1 -3.216245299353273e-16 0  -0.9977668786231532 -0.06679263374512145 0  -0.9910774881547801 -0.1332869553737783 0  -0.9799617050365869 -0.1991859851038361 0  -0.9644691750543766 -0.264195401871286 0  -0.9446690916079188 -0.3280248578395691 0  -0.9206498866764288 -0.3903892751634949 0  -0.8925188358598815 -0.4510101192161015 0  -0.8604015792601394 -0.5096166425919175 0  -0.8244415603417605 -0.5659470943305949 0  -0.7847993852786611 -0.6197498889602446 0  -0.7416521056479575 -0.6707847301392236 0  -0.6951924276746424 -0.7188236838779292 0  -0.6456278515588025 -0.7636521965473319 0  -0.593179744729355 -0.8050700531275631 0  -0.5380823531633728 -0.842892271416797 0  -0.4805817551866835 -0.8769499282066716 0  -0.4209347624283351 -0.9070909137343407 0  -0.3594077728375134 -0.9331806110416024 0  -0.296275580885634 -0.9551024972069124 0  -0.2318201502675288 -0.9727586637650371 0  -0.1663293545831301 -0.9860702539900286 0  -0.1000956916240988 -0.994977815088504 0  -0.03341497700767455 -0.9994415637302546 0  0.03341497700767418 -0.9994415637302546 0  0.1000956916240984 -0.994977815088504 0  0.1663293545831297 -0.9860702539900286 0  0.2318201502675284 -0.9727586637650372 0  0.2962755808856337 -0.9551024972069125 0  0.3594077728375122 -0.9331806110416029 0  0.4209347624283348 -0.9070909137343408 0  0.4805817551866832 -0.8769499282066718 0  0.5380823531633725 -0.8428922714167971 0  0.5931797447293548 -0.8050700531275633 0  0.6456278515588023 -0.7636521965473321 0  0.6951924276746418 -0.7188236838779297 0  0.7416521056479575 -0.6707847301392235 0  0.7847993852786612 -0.6197498889602446 0  0.8244415603417603 -0.5659470943305952 0  0.8604015792601392 -0.5096166425919179 0  0.8925188358598808 -0.4510101192161026 0  0.9206498866764287 -0.3903892751634952 0  0.9446690916079188 -0.328024857839569 0  0.9644691750543765 -0.2641954018712863 0  0.9799617050365869 -0.199185985103836 0  0.99107748815478 -0.1332869553737791 0  0.9977668786231532 -0.06679263374512227 0  0.5766044443118978 0.06427876096865393 0  0.6 0 0  0.5766044443118978 -0.06427876096865397 0  0.517364817766693 -0.09848077530122082 0  0.45 -0.08660254037844384 0  0.4060307379214091 -0.03420201433256687 0  0.4060307379214091 0.03420201433256689 0  0.45 0.08660254037844388 0  0.5173648177666931 0.0984807753012208 0  -0.2965686451888956 -3.216245299353273e-16 0  0.02995799338450739 0.4463820650390996 0  0.02995799338450775 -0.4463820650390995 0  -0.3955719483658615 0.4150379846043291 0  -0.4169105514339966 -0.4032046590493156 0  -0.6262911543602625 0.1406750128378851 0  0.4099697941225568 0.4649562806856727 0  0.4099697941225571 -0.4649562806856725 0  0.05127126517818126 0.08817401780249684 0  -0.1831682142260297 -0.6686721086721615 0  -0.1831682142260294 0.6686721086721619 0  -0.6520464330424147 -0.1814832365373373 0  0.2091634468672813 0.6766366337832459 0  0.1883365569596445 -0.6875396105945327 0  0.2159040325791659 -0.2383848214817743 0  -0.1744543149380852 0.2484563274625736 0  -0.06716122455575962 -0.1748068953293204 0  0.2513036159616241 0.2568747514607447 0  0.6477088057990819 -0.3356515765545967 0  0.6477088057990816 0.3356515765545969 0  -0.6429348001755962 0.3888615828205575 0  -0.4176911395802332 -0.639529979133491 0  -0.6487907438517166 -0.4141725603623674 0  -0.4382859878713386 0.638471665172117 0  -0.1883060146004528 -0.3712832336183189 0  -0.4093410988944064 0.1924263534676403 0  0.7784262897673441 0.1313041761919452 0  0.7692266286696862 -0.1588101168391893 0  -0.3273037620396328 -0.2103878546156154 0  -0.1798454764806241 0.458542771899162 0  0.4017553023960708 -0.6784121172515977 0  -0.7833260349743965 -0.008879310202590557 0  -0.4794205971237819 -0.08072648637784163 0  0.4174224539707952 0.6731117436251652 0  0.01086072875173043 0.7779172259216657 0  0.5993482410529842 0.529941331081667 0  0.5800727149699484 -0.5610028828936883 0  -0.002913066865704084 -0.7863475463243047 0  0.4644692980420977 0.281953550413786 0  0.4644692980420981 -0.281953550413786 0  0.2204900511885566 0.4449044634307799 0  0.2180189937406393 -0.4954600835645215 0  0.2060327886352148 -0.03858259979572255 0  -0.7808481637664745 0.2422213783127347 0  0.06990549121986947 0.2690208389553115 0  -0.1124194025531066 0.00373323440863213 0  -0.2838372182411008 -0.5216724848805774 0  0.03130371177689495 -0.6180840640285581 0  -0.7762218745645899 -0.2989562490519654 0  0.05214597457400483 0.613977754767665 0  -0.4956543915012957 -0.251170934148539 0  -0.5275381827985767 -0.5210032025475994 0  -0.5301696116286927 0.5051064981533095 0  -0.16809888692682 -0.8270183856644552 0  -0.3240121076586466 0.7657967722683376 0  -0.1438288839385778 0.8257307941019953 0  -0.2998557134907758 0.5617360107302967 0  0.1684367173033988 0.8286804545679113 0  -0.6250110225296729 -0.01789111552180164 0  -0.3137113036339798 -0.7609856814941814 0  -0.1170075000122383 -0.518790272865666 0  0.05108989091758273 -0.06990257622780319 0  -0.5427150590508653 0.270931066435428 0  0.1429967624415053 -0.8342737229435346 0  0.2997239097253987 -0.7923562376371267 0  0.2676893696803808 0.1031671400466477 0  0.3261287713905652 -0.3403712992466087 0  0.7950089908879098 0.2858943947941835 0  0.3151824699376609 0.7865115564528017 0  0.3115634426834656 0.5726907027982669 0  0.704039443019545 -0.4753841151972395 0  0.7470219429290336 -0.01290298646666185 0  -0.8321235529347469 -0.1551998530807213 0  0.05709269783870959 -0.2835250962999872 0  -0.2021447182543711 -0.1140175740005167 0  -0.05854661192244001 0.3332686099592011 0  -0.4944752806394075 0.06870205217856792 0  0.6465785626300955 0.1909460270059954 0  0.6150172073263744 -0.1992156468339642 0  -0.08321382237958147 0.5651617303365446 0  -0.6720985235143602 0.5299695767353035 0  0.3081627102340266 -0.1336818188805801 0  0.7954182263431147 -0.306979485853048 0  -0.0801862748968569 0.1421281857867356 0  -0.2704290205461716 0.3511058548763765 0  -0.2733876063765904 0.1428439818287992 0  -0.6630142665634642 -0.5525422555121322 0  0.7250705628492369 0.4580712316052048 0  0.5291222693526491 0.4008241947929737 0  0.543461903937986 -0.42718897847992 0  -0.5796080761878384 0.6375025331582558 0  -0.5686737890628571 -0.6510435601866913 0  0.1471374478051752 -0.382217095965624 0  0.367570301927055 0.1909193223550535 0  0.8716954478736112 0.02914395839180125 0  0.3487459623057126 0.3471068582357988 0  0.1543099947611301 0.1689404724154097 0  -0.07297109638128209 -0.3068109338541753 0  0.2917188534562402 -0.6051822784871949 0  -0.2024804285799746 -0.2430406644266693 0  -0.7781944430042567 0.3778986247265116 0  -0.8494742869240901 0.1173360134018405 0  -0.7720870174071235 -0.4231153023082534 0  -0.449110317890587 -0.7582468751604555 0  0.5545923664877855 0.6602415200552888 0  0.5344562863167422 -0.6858381270857777 0  0.4766344790775262 0.566780609122759 0  -0.445772660902635 0.7601337067632379 0  -0.6616262409933745 0.2552874992358464 0  0.1653545872376546 0.5583524484327292 0  -0.4028773004059317 -0.5214149604035093 0  -0.2990776467406227 -0.6432205051811133 0  0.1120905589734103 -0.1750840530986415 0  0.06398953478431954 0.8829484618446889 0  -0.5251433924072202 0.3874134656159851 0  -0.6099143365137073 -0.2972611803339155 0  -0.04678747567896177 0.6762313351705379 0  -0.533024901227188 -0.4050045909030676 0  0.1246725721343765 0.3745355098341986 0  -0.3000083100373507 -0.4058635916290634 0  -0.06655528087218812 -0.8836517798731542 0  -0.4088769106504622 0.5282941447433156 0  -0.7345489526308654 0.09712579222418664 0  0.1081465349890011 -0.5316255335782825 0  0.8804353520695445 -0.1485109638682795 0  -0.3713419913383989 0.08543731094255294 0  -0.43252237558797 0.3055918258709063 0  0.1125429094389743 0.7322321616258178 0  -0.8927041854393205 -0.02984635711944513 0  -0.06589562952638969 -0.6859291199262957 0  -0.7331201394770802 -0.1069200385835311 0  -0.08867729710384351 -0.414111852980487 0  -0.0447872543388
[...]
<PointData  Vectors="f_25"> 
<DataArray  type="Float64"  Name="f_25"  NumberOfComponents="3" format="ascii">0.0000000000000000e+00 0.0000000000000000e+00 0.0000000000000000e+00  0.0000000000000000e+00 0.0000000000000000e+00 0.0000000000000000e+00  0.0000000000000000e+00 0.0000000000000000e+00 0.0000000000000000e+00  0.0000000000000000e+00 0.0000000000000000e+00 0.0000000000000000e+00  0.0000000000000000e+00 0.0000000000000000e+00 0.0000000000000000e+00  0.0000000000000000e+00 0.0000000000000000e+00 0.0000000000000000e+00  0.0000000000000000e+00 0.0000000000000000e+00 0.0000000000000000e+00  0.0000000000000000e+00 0.0000000000000000e+00 0.0000000000000000e+00  0.0000000000000000e+00 0.0000000000000000e+00 0.0000000000000000e+00  0.0000000000000000e+00 0.0000000000000000e+00 0.0000000000000000e+00  0.0000000000000000e+00 0.0000000000000000e+00 0.0000000000000000e+00  0.0000000000000000e+00 0.0000000000000000e+00 0.0000000000000000e+00  0.0000000000000000e+00 0.0000000000000000e+00 0.0000000000000000e+00  0.0000000000000000e+00 0.0000000000000000e+00 0.0000000000000000e+00  0.0000000000000000e+00 0.0000000000000000e+00 0.0000000000000000e+00  0.0000000000000000e+00 0.0000000000000000e+00 0.0000000000000000e+00  0.0000000000000000e+00 0.0000000000000000e+00 0.0000000000000000e+00  0.0000000000000000e+00 0.0000000000000000e+00 0.0000000000000000e+00  0.0000000000000000e+00 0.0000000000000000e+00 0.0000000000000000e+00  0.0000000000000000e+00 0.0000000000000000e+00 0.0000000000000000e+00  0.0000000000000000e+00 0.0000000000000000e+00 0.0000000000000000e+00  0.0000000000000000e+00 0.0000000000000000e+00 0.0000000000000000e+00  0.0000000000000000e+00 0.0000000000000000e+00 0.0000000000000000e+00  0.0000000000000000e+00 0.0000000000000000e+00 0.0000000000000000e+00  0.0000000000000000e+00 0.0000000000000000e+00 0.0000000000000000e+00  0.0000000000000000e+00 0.0000000000000000e+00 0.0000000000000000e+00  0.0000000000000000e+00 0.0000000000000000e+00 0.0000000000000000e+00  0.0000000000000000e+00 0.0000000000000000e+00 0.0000000000000000e+00  0.0000000000000000e+00 0.0000000000000000e+00 0.0000000000000000e+00  0.0000000000000000e+00 0.0000000000000000e+00 0.0000000000000000e+00  0.0000000000000000e+00 0.0000000000000000e+00 0.0000000000000000e+00  0.0000000000000000e+00 0.0000000000000000e+00 0.0000000000000000e+00  0.0000000000000000e+00 0.0000000000000000e+00 0.0000000000000000e+00  0.0000000000000000e+00 0.0000000000000000e+00 0.0000000000000000e+00  0.0000000000000000e+00 0.0000000000000000e+00 0.0000000000000000e+00  0.0000000000000000e+00 0.0000000000000000e+00 0.0000000000000000e+00  0.0000000000000000e+00 0.0000000000000000e+00 0.0000000000000000e+00  0.0000000000000000e+00 0.0000000000000000e+00 0.0000000000000000e+00  0.0000000000000000e+00 0.0000000000000000e+00 0.0000000000000000e+00  0.0000000000000000e+00 0.0000000000000000e+00 0.0000000000000000e+00  0.0000000000000000e+00 0.0000000000000000e+00 0.0000000000000000e+00  0.0000000000000000e+00 0.0000000000000000e+00 0.0000000000000000e+00  0.0000000000000000e+00 0.0000000000000000e+00 0.0000000000000000e+00  0.0000000000000000e+00 0.0000000000000000e+00 0.0000000000000000e+00  0.0000000000000000e+00 0.0000000000000000e+00 0.0000000000000000e+00  0.0000000000000000e+00 0.0000000000000000e+00 0.0000000000000000e+00  0.0000000000000000e+00 0.0000000000000000e+00 0.0000000000000000e+00  0.0000000000000000e+00 0.0000000000000000e+00 0.0000000000000000e+00  0.0000000000000000e+00 0.0000000000000000e+00 0.0000000000000000e+00  0.0000000000000000e+00 0.0000000000000000e+00 0.0000000000000000e+00  0.0000000000000000e+00 0.0000000000000000e+00 0.0000000000000000e+00  0.0000000000000000e+00 0.0000000000000000e+00 0.0000000000000000e+00  0.0000000000000000e+00 0.0000000000000000e+00 0.0000000000000000e+00  0.0000000000000000e+00 0.0000000000000000e+00 0.0000000000000000e+00  0.0000000000000000e+00 0.0000000000000000e+00 0.0000000000000000e+00  0.0000000000000000e+00 0.0000000000000000e+00 0.0000000000000000e+00  0.0000000000000000e+00 0.0000000000000000e+00 0.0000000000000000e+00  0.0000000000000000e+00 0.0000000000000000e+00 0.0000000000000000e+00  0.0000000000000000e+00 0.0000000000000000e+00 0.0000000000000000e+00  0.0000000000000000e+00 0.0000000000000000e+00 0.0000000000000000e+00  0.0000000000000000e+00 0.0000000000000000e+00 0.0000000000000000e+00  0.0000000000000000e+00 0.0000000000000000e+00 0.0000000000000000e+00  0.0000000000000000e+00 0.0000000000000000e+00 0.0000000000000000e+00  0.0000000000000000e+00 0.0000000000000000e+00 0.0000000000000000e+00  0.0000000000000000e+00 0.0000000000000000e+00 0.0000000000000000e+00  0.0000000000000000e+00 0.0000000000000000e+00 0.0000000000000000e+00  0.0000000000000000e+00 0.0000000000000000e+00 0.0000000000000000e+00  0.0000000000000000e+00 0.0000000000000000e+00 0.0000000000000000e+00  0.0000000000000000e+00 0.0000000000000000e+00 0.0000000000000000e+00  0.0000000000000000e+00 0.0000000000000000e+00 0.0000000000000000e+00  0.0000000000000000e+00 0.0000000000000000e+00 0.0000000000000000e+00  0.0000000000000000e+00 0.0000000000000000e+00 0.0000000000000000e+00  0.0000000000000000e+00 0.0000000000000000e+00 0.0000000000000000e+00  0.0000000000000000e+00 0.0000000000000000e+00 0.0000000000000000e+00  0.0000000000000000e+00 0.0000000000000000e+00 0.0000000000000000e+00  0.0000000000000000e+00 0.0000000000000000e+00 0.0000000000000000e+00  0.0000000000000000e+00 0.0000000000000000e+00 0.0000000000000000e+00  0.0000000000000000e+00 0.0000000000000000e+00 0.0000000000000000e+00  0.0000000000000000e+00 0.0000000000000000e+00 0.0000000000000000e+00  0.0000000000000000e+00 0.0000000000000000e+00 0.0000000000000000e+00  0.0000000000000000e+00 0.0000000000000000e+00 0.0000000000000000e+00  0.0000000000000000e+00 0.0000000000000000e+00 0.0000000000000000e+00  0.0000000000000000e+00 0.0000000000000000e+00 0.0000000000000000e+00  0.0000000000000000e+00 0.0000000000000000e+00 0.0000000000000000e+00  0.0000000000000000e+00 0.0000000000000000e+00 0.0000000000000000e+00  0.0000000000000000e+00 0.0000000000000000e+00 0.0000000000000000e+00  0.0000000000000000e+00 0.0000000000000000e+00 0.0000000000000000e+00  0.0000000000000000e+00 0.0000000000000000e+00 0.0000000000000000e+00  0.0000000000000000e+00 0.0000000000000000e+00 0.0000000000000000e+00  0.0000000000000000e+00 0.0000000000000000e+00 0.0000000000000000e+00  0.0000000000000000e+00 0.0000000000000000e+00 0.0000000000000000e+00  0.0000000000000000e+00 0.0000000000000000e+00 0.0000000000000000e+00  0.0000000000000000e+00 0.0000000000000000e+00 0.0000000000000000e+00  0.0000000000000000e+00 0.0000000000000000e+00 0.0000000000000000e+00  0.0000000000000000e+00 0.0000000000000000e+00 0.0000000000000000e+00  0.0000000000000000e+00 0.0000000000000000e+00 0.0000000000000000e+00  0.0000000000000000e+00 0.0000000000000000e+00 0.0000000000000000e+00  0.0000000000000000e+00 0.0000000000000000e+00 0.0000000000000000e+00  0.0000000000000000e+00 0.0000000000000000e+00 0.0000000000000000e+00  0.0000000000000000e+00 0.0000000000000000e+00 0.0000000000000000e+00  0.0000000000000000e+00 0.0000000000000000e+00 0.0000000000000000e+00  0.0000000000000000e+00 0.0000000000000000e+00 0.0000000000000000e+00  0.0000000000000000e+00 0.0000000000000000e+00 0.0000000000000000e+00  -1.1809230127826577e-04 -1.4133115871072893e-01 0.0000000000000000e+00  -1.8753524258449275e-01 2.6394593565647970e-02 0.0000000000000000e+00  1.8798703503291311e-01 2.5952020397076569e-02 0.0000000000000000e+00  -1.5569495712158701e-01 -1.4366227022794931e-01 0.0000000000000000e+00  1.4962120161258116e-01 -1.5028995047357346e-01 0.0000000000000000e+00  -4.6257012941717142e-02 -2.0306211546911093e-01 0.0000000000000000e+00  -1.4077552995605086e-01 1.2350952684245833e-01 0.0000000000000000e+00  1.4104771005989250e-01 1.2425288458207558e-01 0.0000000000000000e+00  -4.0652246167975220e-02 7.1114836744452806e-02 0.0000000000000000e+00  1.8413052793146040e-01 -4.7525375575342838e-02 0.0000000000000000e+00  -1.8410683696889485e-01 -4.7313759573133544e-02 0.0000000000000000e+00  5.4389192084994910e-02 -1.9337862183297858e-01 0.0000000000000000e+00  -1.6954898414372488e-01 5.5671895698204181e-02 0.0000000000000000e+00  1.7053415834817442e-01 4.9810396530814122e-02 0.0000000000000000e+00  8.5039049665059804e-02 1.2531067554882344e-01 0.0000000000000000e+00  -1.2521381316491279e-01 -7.1873114658869891e-02 0.0000000000000000e+00  8.8758581515568688e-02 -8.1328757869813546e-03 0.0000000000000000e+00  -8.7207209534898578e-02 1.3042544361949079e-01 0.0000000000000000e+00  9.7891165716282785e-02 1.4571414293248000e-01 0.0000000000000000e+00  -9.8542165283952821e-02 1.4556074951444689e-01 0.0000000000000000e+00  -9.1036404919657504e-02 -1.4926561119982842e-01 0.0000000000000000e+00  1.4055447408924371e-01 -9.0283079697318858e-02 0.0000000000000000e+00  9.0109578181675393e-02 -1.4001041564427771e-01 0.0000000000000000e+00  -1.3442414048908249e-01 -9.0969680275598430e-02 0.0000000000000000e+00  1.7073094593739996e-01 -7.5731959532021054e-02 0.0000000000000000e+00  -8.7624189765748900e-02 -1.7908708862649231e-01 0.0000000000000000e+00  -4.8677723578809139e-02 1.8092290957984727e-01 0.0000000000000000e+00  5.7366319586736672e-02 1.7611360987209404e-01 0.0000000000000000e+00  1.0182050770853829e-01 -1.4872936142200663e-01 0.0000000000000000e+00  -1.9143544434728893e-01 -6.6575755022323074e-02 0.0000000000000000e+00  1.2473504728455422e-01 7.4398177511485059e-02 0.0000000000000000e+00  1.8569183118546826e-03 -1.6075058917962154e-01 0.0000000000000000e+00  3.5305234551181112e-02 -2.0399717469228099e-01 0.0000000000000000e+00  -1.2160826532043774e-01 7.5746173620910781e-02 0.0000000000000000e+00  -1.5514696841403508e-01 4.0440181056871785e-03 0.0000000000000000e+00  -9.6801492876714273e-02 1.0271585644468822e-01 0.0000000000000000e+00  9.7422789408658506e-02 9.6294382782276131e-02 0.0000000000000000e+00  1.5148763231741949e-01 1.0381594827859873e-03 0.0000000000000000e+00  -9.2544213588461793e-02 1.3324235207550653e-01 0.0000000000000000e+00  9.2329168641499537e-02 1.3534084173477759e-01 0.0000000000000000e+00  -1.6480209858738182e-01 9.5063049256152651e-02 0.0000000000000000e+00  1.7591664489426134e-01 8.7008157876666131e-02 0.0000000000000000e+00  7.6559067923767082e-03 1.5988893303552928e-01 0.0000000000000000e+00  -4.2150625813123170e-02 -1.3547771183616558e-01 0.0000000000000000e+00  -1.2135039010695405e-01 6.2602904145624250e-02 0.0000000000000000e+00  -2.2558194953402099e-03 -3.3127146110826171e-02 0.0000000000000000e+00  1.8562647110067049e-01 -9.6313566431149175e-02 0.0000000000000000e+00  2.0010411190588720e-01 1.5696612109913268e-02 0.0000000000000000e+00  4.8074129103035462e-02 -1.2422369083998507e-01 0.0000000000000000e+00  -1.9885480750573373e-01 2.2841223468821104e-02 0.0000000000000000e+00  9.8350734680133833e-02 -1.8950993837285796e-01 0.0000000000000000e+00  1.2578003777716193e-01 -1.2579654719691585e-01 0.0000000000000000e+00  -1.2606505829948658e-01 -1.3065651406817361e-01 0.0000000000000000e+00  1.1884502443423813e-01 -2.3321103247420694e-02 0.0000000000000000e+00  -1.2014590471411893e-01 -5.0040483986190348e-02 0.0000000000000000e+00  -1.2276685302946255e-01 -2.0524870526377144e-02 0.0000000000000000e+00  -1.8201847073237160e-01 -9.3352489218261545e-02 0.0000000000000000e+00  -1.1419162276434493e-01 2.4091981879010238e-02 0.0000000000000000e+00  6.0758303222311853e-03 -2.1081594571924275e-01 0.0000000000000000e+00  1.2518502789971872e-01 -5.0683402853742024e-02 0.0000000000000000e+00  2.0220973053888469e-01 -3.8090405949903525e-02 0.0000000000000000e+00  3.1199726754490498e-02 7.1597370755854678e-02 0.0000000000000000e+00  -9.6061995089784677e-02 -1.8906018965598492e-01 0.0000000000000000e+00  1.1476617065408659e-01 2.0554674651920610e-02 0.0000000000000000e+00  1.0698456760769705e-01 4.1167734829357427e-02 0.0000000000000000e+00  -1.1767519229749527e-02 1.7080722257747116e-01 0.0000000000000000e+00  1.1725956106513268e-01 1.3011697690395163e-01 0.0000000000000000e+00  -5.8051651542579449e-02 1.2660487994331990e-01 0.0000000000000000e+00  -1.0579654126189528e-01 4.3073874474621236e-02 0.0000000000000000e+00  -1.6389762531611682e-01 9.2909555941724731e-02 0.0000000000000000e+00  7.0862718079630127e-02 9.5174290941989453e-02 0.0000000000000000e+00  7.1031713270506185e-03 2.1592296559742780e-01 0.0000000000000000e+00  2.2793450897903286e-02 -1.2198325061925852e-01 0.0000000000000000e+00  1.2933228619108894e-01 5.3851835976377604e-02 0.0000000000000000e+00  6.0151412121402043e-02 -8.9179368763092251e-02 0.0000000000000000e+00  -1.5806262273131494e-01 -9.7011114926771561e-03 0.0000000000000000e+00  -2.9553091437765064e-02 -2.0710368407491370e-01 0.0000000000000000e+00  -9.5815622914321996e-02 1.6902901267044365e-01 0.0000000000000000e+00  9.9655276107910140e-02 1.5726915435659733e-01 0.0000000000000000e+00  -2.0457944569170797e-01 -2.3442431471196842e-02 0.0000000000000000e+00  -7.2658741611197591e-02 -9.1665809942702778e-02 0.0000000000000000e+00  9.4207596674345338e-03 1.6409303346464624e-01 0.0000000000000000e+00  5.7056091818421771e-02 1.1853467241494142e-01 0.0000000000000000e+00  -7.3296996329288502e-02 -1.4621526999047686e-02 0.0000000000000000e+00  -1.5869546972446333e-01 -1.1312756741256867e-01 0.0000000000000000e+00  -7.3506865792705989e-02 -1.2715192549880042e-01 0.0000000000000000e+00  7.1929662508847150e-02 -8.5840571162003498e-02 0.0000000000000000e+00  -6.6410234545744073e-02 9.4164616490731157e-02 0.0000000000000000e+00  -1.1752373981876489e-01 1.3680758057818493e-01 0.0000000000000000e+00  1.1693040253287414e-01 1.3313837480370835e-01 0.0000000000000000e+00  -8.3528035773551015e-02 -7.5476269603947599e-02 0.0000000000000000e+00  8.3457830080021361e-02 -7.2469176478752576e-02 0.0000000000000000e+00  1.5698439126248512e-01 8.0437215132738382e-02 0.0000000000000000e+00  -2.9518822965995412e-02 1.3606084624488693e-01 0.0000000000000000e+00  -6.5409933721902380e-03 1.4242363618773637e-01 0.0000000000000000e+00  -1.1694857180407335e-01 1.3125175289280028e-01 0.0000000000000000e+00  -6.4064736334828884e-02 1.1712521992313668e-01 0.0000000000000000e+00  1.4856381253472087e-01 -1.7039743395429990e-02 0.0000000000000000e+00  1.6611751145619588e-01 8.3565334238283107e-02 0.0000000000000000e+00  1.2233872244076389e-01 -8.7482196268284657e-02 0.0000000000000000e+00  -4.8727648170282217e-02 -9.9991512723088982e-02 0.0000000000000000e+00  -1.5990731391065275e-02 -1.1567931403535078e-01 0.0000000000000000e+00  4.8260532054781903e-02 -8.7815944046489389e-02 0.0000000000000000e+00  8.4460605524564122e-02 -4.9648044998368973e-02 0.0000000000000000e+00  -8.0619465200923807e-02 6.6502398060481152e-02 0.0000000000000000e+00  7.9120575936964949e-02 6.0891465913109163e-02 0.0000000000000000e+00  -1.2667840639014549e-01 1.0411477568646199e-01 0.0000000000000000e+00  -8.4718840846293789e-02 -4.9315709063555035e-02 0.0000000000000000e+00  -6.9456578484746997e-02 -1.7823608352066900e-01 0.0000000000000000e+00  -1.8854625534435268e-01 6.3509980876596941e-02 0.0000000000000000e+00  1.6127142788758239e-01 -1.2175705492823254e-01 0.0000000000000000e+00  1.7043973370032689e-01 -7.6780189247785527e-02 0.0000000000000000e+00  7.2638631687786587e-02 9.5170660289877612e-02 0.0000000000000000e+00  -9.1352332917099766e-02 7.1370679410748686e-03 0.0000000000000000e+00  -1.2303576236378151e-01 -1.6398279016115896e-01 0.0000000000000000e+00  8.8492795900326604e-02 -1.7937062316237998e-01 0.0000000000000000e+00  -1.9155096899213239e-01 -9.4407414143609179e-03 0.0000000000000000e+00  1.2293046903267607e-01 -1.5944869067192710e-01 0.0000000000000000e+00  -1.5664665105241554e-01 7.3358291184874067e-02 0.0000000000000000e+00  1.6945969091136295e-01 -1.1847497196546895e-01 0.0000000000000000e+00  9.1764763142026792e-02 -6.4365461372454819e-03 0.0000000000000000e+00  -1.5957539756572178e-01 -1.2058733387802742e-01 0.0000000000000000e+00  -2.3720588055140050e-02 -1.7848545965619905e-01 0.0000000000000000e+00  1.9464462111220343e-01 4.8469390873666758e-02 0.0000000000000000e+00  2.5522786432081852e-02 1.1678573921237795e-01 0.0000000000000000e+00  -4.2050101572134298e-02 -1.7284702430812515e-01 0.0000000000000000e+00  -1.2450351929415793e-01 -1.7082657970847825e-01 0.0000000000000000e+00  -1.6692631828422808e-01 2.8186021843767187e-02 0.0000000000000000e+00  3.1122063150766650e-03 -9.1118583518993865e-02 0.0000000000000000e+00  1.8877545024026623e-01 -1.4839830648669713e-02 0.0000000000000000e+00  2.6157152193904177e-02 -1.7812514680329952e-01 0.0000000000000000e+00  1.8483862333688886e-01 -2.7316912749973058e-02 0.0000000000000000e+00  -1.0077620686437641e-01 -4.6423771528667822e-03 0.0000000000000000e+00  6.0114800180521066e-02 1.3810164010373271e-01 0.0000000000000000e+00  8.8740901176962234e-02 4.9645078956034429e-03 0.0000000000000000e+00  1.6678956120737029e-01 2.3542683521533606e-02 0.0000000000000000e+00  7.7412886605309789e-02 2.0173962536940904e-01 0.0000000000000000e+00  -2.1363418732916622e-02 1.3452238402345754e-01 0.0000000000000000e+00  6.9926609642718823e-02 4.1450752855741499e-02 0.0000000000000000e+00  1.4669522782121810e-01 1.0206814421568308e-01 0.0000000000000000e+00  -6.9125894869305968e-02 4.0972486394310073e-02 0.0000000000000000e+00  2.2903719431276214e-03 2.0362198088110564e-01 0.0000000000000000e+00  -3.1399655459959104e-02 -9.1358607558530397e-02 0.0000000000000000e+00  -1.7845016547494350e-01 -1.1029350964273132e-01 0.0000000000000000e+00  -5.5795350173900887e-02 2.1867771606526298e-01 0.0000000000000000e+00  -2.2874044024898694e-02 1.1657838331070888e-01 0.0000000000000000e+00  1.2693542352541953e-01 -1.6353327208703916e-01 0.0000000000000000e+00  5.4016018617781873e-02 -1.4553160944246971e-01 0.0000000000000000e+00  -1.1845963812123789e-01 -1.3947919663727698e-01 0.0000000000000000e+00  -1.9811198941219454e-01 -6.0982732460562315e-02 0.0000000000000000e+00  -1.9482480866077728e-01 -2.0624148769390203e-02 0.0000000000000000e+00  -1.6603312395406908e-01 -6.3590382936319120e-02 0.0000000000000000e+00  8.3652103122185975e-02 1.6091007511425190e-01 0.0000000000000000e+00  -1.4809810937253273e-01 7.0437230116142738e-02 0.0000000000000000e+00  -6.6401596974987875e-02 -2.0329374315497650e-01 0.0000000000000000e+00  -5.5027416474007086e-02 6.5444604120246747e-02 0.0000000000000000e+00  -1.6683552015767775e-01 -7.0035730596919490e-02 0.0000000000000000e+00  -9.0300244799501259e-02 1.2594836217501834e-01 0.0000000000000000e+00  -9.9377294610198022e-02 1.2523680402486034e-01 0.0000000000000000e+00  4.0771759734247501e-02 1.4247299596362736e-01 0.0000000000000000e+00  -7.9263061381405792e-02 -2.1413974360844638e-02 0.0000000000000000e+00  7.7666735361242842e-02 -1.8563302779233090e-01 0.0000000000000000e+00  6.9011150482878548e-03 -1.8444704430742592e-01 0.0000000000000000e+00  4.0458324075537601e-02 -2.1015776836625549e-01 0.0000000000000000e+00  5.4698527091241379e-02 6.1924931254452038e-02 0.0000000000000000e+00  1.4204354788532536e-01 -1.2378288930230380e-01 0.0000000000000000e+00  -8.8193745435425130e-02 4.0792784524173502e-02 0.0000000000000000e+00  4.6819667188787911e-02 1.0346768720546523e-01 0.0000000000000000e+00  1.2650047700327383e-01 1.1743558751520720e-01 0.0000000000000000e+00  7.3317382900995209e-02 -2.5142003170563521e-02 0.0000000000000000e+00  1.8432313025895142e-01 6.6837788172002408e-02 0.0000000000000000e+00  1.5249469472587515e-01 1.1478228103232375e-01 0.0000000000000000e+00  -7.9321051392555672e-02 -7.3838212256936805e-02 0.0000000000000000e+00  7.4694141246681153e-02 2.0651464845673314e-02 0.0000000000000000e+00  -1.1965299016121952e-01 -1.6816527816921778e-02 0.0000000000000000e+00  -4.1322234892619228e-02 7.8507018180247717e-02 0.0000000000000000e+00  4.8119785667935629e-02 8.1914239825248050e-02 0.0000000000000000e+00  2.3942663535174175e-02 -8.2283846887342901e-02 0.0000000000000000e+00  -1.0589368286459398e-01 1.4331660857174308e-