<?xml version="1.0"?>
<VTKFile type="UnstructuredGrid"  version="0.1"  >
<UnstructuredGrid>
<Piece  NumberOfPoints="1890" NumberOfCells="3574">
<Points>
<DataArray  type="Float64"  NumberOfComponents="3"  format="ascii">1 0 0  0.9977668786231532 0.06679263374512155 0  0.9910774881547801 0.1332869553737788 0  0.9799617050365869 0.1991859851038361 0  0.9644691750543766 0.264195401871286 0  0.9446690916079188 0.3280248578395691 0  0.9206498866764288 0.3903892751634948 0  0.8925188358598812 0.4510101192161018 0  0.8604015792601394 0.5096166425919174 0  0.8244415603417603 0.5659470943305952 0  0.784799385278661 0.6197498889602449 0  0.7416521056479576 0.6707847301392235 0  0.6951924276746423 0.7188236838779293 0  0.6456278515588024 0.7636521965473321 0  0.5931797447293553 0.8050700531275629 0  0.5380823531633727 0.842892271416797 0  0.4805817551866838 0.8769499282066715 0  0.420934762428335 0.9070909137343407 0  0.3594077728375128 0.9331806110416025 0  0.2962755808856342 0.9551024972069124 0  0.2318201502675284 0.9727586637650372 0  0.1663293545831299 0.9860702539900286 0  0.1000956916240984 0.994977815088504 0  0.03341497700767464 0.9994415637302546 0  -0.03341497700767452 0.9994415637302546 0  -0.1000956916240983 0.994977815088504 0  -0.16632935458313 0.9860702539900286 0  -0.2318201502675281 0.9727586637650372 0  -0.2962755808856338 0.9551024972069124 0  -0.3594077728375129 0.9331806110416025 0  -0.4209347624283349 0.9070909137343408 0  -0.4805817551866837 0.8769499282066716 0  -0.5380823531633726 0.8428922714167971 0  -0.5931797447293552 0.805070053127563 0  -0.6456278515588024 0.7636521965473321 0  -0.6951924276746423 0.7188236838779293 0  -0.7416521056479576 0.6707847301392235 0  -0.784799385278661 0.6197498889602449 0  -0.8244415603417601 0.5659470943305954 0  -0.8604015792601392 0.5096166425919177 0  -0.8925188358598811 0.4510101192161021 0  -0.9206498866764287 0.3903892751634951 0  -0.9446690916079189 0.3280248578395689 0  -0.9644691750543765 0.2641954018712862 0  -0.9799617050365867 0.1991859851038363 0  -0.99107748815478 0.133286955373779 0  -0.9977668786231532 0.0667926337451217 0  -1 -3.216245299353273e-16 0  -0.9977668786231532 -0.06679263374512145 0  -0.9910774881547801 -0.1332869553737783 0  -0.9799617050365869 -0.1991859851038361 0  -0.9644691750543766 -0.264195401871286 0  -0.9446690916079188 -0.3280248578395691 0  -0.9206498866764288 -0.3903892751634949 0  -0.8925188358598815 -0.4510101192161015 0  -0.8604015792601394 -0.5096166425919175 0  -0.8244415603417605 -0.5659470943305949 0  -0.7847993852786611 -0.6197498889602446 0  -0.7416521056479575 -0.6707847301392236 0  -0.6951924276746424 -0.7188236838779292 0  -0.6456278515588025 -0.7636521965473319 0  -0.593179744729355 -0.8050700531275631 0  -0.5380823531633728 -0.842892271416797 0  -0.4805817551866835 -0.8769499282066716 0  -0.4209347624283351 -0.9070909137343407 0  -0.3594077728375134 -0.9331806110416024 0  -0.296275580885634 -0.9551024972069124 0  -0.2318201502675288 -0.9727586637650371 0  -0.1663293545831301 -0.9860702539900286 0  -0.1000956916240988 -0.994977815088504 0  -0.03341497700767455 -0.9994415637302546 0  0.03341497700767418 -0.9994415637302546 0  0.1000956916240984 -0.994977815088504 0  0.1663293545831297 -0.9860702539900286 0  0.2318201502675284 -0.9727586637650372 0  0.2962755808856337 -0.9551024972069125 0  0.3594077728375122 -0.9331806110416029 0  0.4209347624283348 -0.9070909137343408 0  0.4805817551866832 -0.8769499282066718 0  0.5380823531633725 -0.8428922714167971 0  0.5931797447293548 -0.8050700531275633 0  0.6456278515588023 -0.7636521965473321 0  0.6951924276746418 -0.7188236838779297 0  0.7416521056479575 -0.6707847301392235 0  0.7847993852786612 -0.6197498889602446 0  0.8244415603417603 -0.5659470943305952 0  0.8604015792601392 -0.5096166425919179 0  0.8925188358598808 -0.4510101192161026 0  0.9206498866764287 -0.3903892751634952 0  0.9446690916079188 -0.328024857839569 0  0.9644691750543765 -0.2641954018712863 0  0.9799617050365869 -0.199185985103836 0  0.99107748815478 -0.1332869553737791 0  0.9977668786231532 -0.06679263374512227 0  0.5766044443118978 0.06427876096865393 0  0.6 0 0  0.5766044443118978 -0.06427876096865397 0  0.517364817766693 -0.09848077530122082 0  0.45 -0.08660254037844384 0  0.4060307379214091 -0.03420201433256687 0  0.4060307379214091 0.03420201433256689 0  0.45 0.08660254037844388 0  0.5173648177666931 0.0984807753012208 0  -0.2965686451888956 -3.216245299353273e-16 0  0.02995799338450739 0.4463820650390996 0  0.02995799338450775 -0.4463820650390995 0  -0.3955719483658615 0.4150379846043291 0  -0.4169105514339966 -0.4032046590493156 0  -0.6262911543602625 0.1406750128378851 0  0.4099697941225568 0.4649562806856727 0  0.4099697941225571 -0.4649562806856725 0  0.05127126517818126 0.08817401780249684 0  -0.1831682142260297 -0.6686721086721615 0  -0.1831682142260294 0.6686721086721619 0  -0.6520464330424147 -0.1814832365373373 0  0.2091634468672813 0.6766366337832459 0  0.1883365569596445 -0.6875396105945327 0  0.2159040325791659 -0.2383848214817743 0  -0.1744543149380852 0.2484563274625736 0  -0.06716122455575962 -0.1748068953293204 0  0.2513036159616241 0.2568747514607447 0  0.6477088057990819 -0.3356515765545967 0  0.6477088057990816 0.3356515765545969 0  -0.6429348001755962 0.3888615828205575 0  -0.4176911395802332 -0.639529979133491 0  -0.6487907438517166 -0.4141725603623674 0  -0.4382859878713386 0.638471665172117 0  -0.1883060146004528 -0.3712832336183189 0  -0.4093410988944064 0.1924263534676403 0  0.7784262897673441 0.1313041761919452 0  0.7692266286696862 -0.1588101168391893 0  -0.3273037620396328 -0.2103878546156154 0  -0.1798454764806241 0.458542771899162 0  0.4017553023960708 -0.6784121172515977 0  -0.7833260349743965 -0.008879310202590557 0  -0.4794205971237819 -0.08072648637784163 0  0.4174224539707952 0.6731117436251652 0  0.01086072875173043 0.7779172259216657 0  0.5993482410529842 0.529941331081667 0  0.5800727149699484 -0.5610028828936883 0  -0.002913066865704084 -0.7863475463243047 0  0.4644692980420977 0.281953550413786 0  0.4644692980420981 -0.281953550413786 0  0.2204900511885566 0.4449044634307799 0  0.2180189937406393 -0.4954600835645215 0  0.2060327886352148 -0.03858259979572255 0  -0.7808481637664745 0.2422213783127347 0  0.06990549121986947 0.2690208389553115 0  -0.1124194025531066 0.00373323440863213 0  -0.2838372182411008 -0.5216724848805774 0  0.03130371177689495 -0.6180840640285581 0  -0.7762218745645899 -0.2989562490519654 0  0.05214597457400483 0.613977754767665 0  -0.4956543915012957 -0.251170934148539 0  -0.5275381827985767 -0.5210032025475994 0  -0.5301696116286927 0.5051064981533095 0  -0.16809888692682 -0.8270183856644552 0  -0.3240121076586466 0.7657967722683376 0  -0.1438288839385778 0.8257307941019953 0  -0.2998557134907758 0.5617360107302967 0  0.1684367173033988 0.8286804545679113 0  -0.6250110225296729 -0.01789111552180164 0  -0.3137113036339798 -0.7609856814941814 0  -0.1170075000122383 -0.518790272865666 0  0.05108989091758273 -0.06990257622780319 0  -0.5427150590508653 0.270931066435428 0  0.1429967624415053 -0.8342737229435346 0  0.2997239097253987 -0.7923562376371267 0  0.2676893696803808 0.1031671400466477 0  0.3261287713905652 -0.3403712992466087 0  0.7950089908879098 0.2858943947941835 0  0.3151824699376609 0.7865115564528017 0  0.3115634426834656 0.5726907027982669 0  0.704039443019545 -0.4753841151972395 0  0.7470219429290336 -0.01290298646666185 0  -0.8321235529347469 -0.1551998530807213 0  0.05709269783870959 -0.2835250962999872 0  -0.2021447182543711 -0.1140175740005167 0  -0.05854661192244001 0.3332686099592011 0  -0.4944752806394075 0.06870205217856792 0  0.6465785626300955 0.1909460270059954 0  0.6150172073263744 -0.1992156468339642 0  -0.08321382237958147 0.5651617303365446 0  -0.6720985235143602 0.5299695767353035 0  0.3081627102340266 -0.1336818188805801 0  0.7954182263431147 -0.306979485853048 0  -0.0801862748968569 0.1421281857867356 0  -0.2704290205461716 0.3511058548763765 0  -0.2733876063765904 0.1428439818287992 0  -0.6630142665634642 -0.5525422555121322 0  0.7250705628492369 0.4580712316052048 0  0.5291222693526491 0.4008241947929737 0  0.543461903937986 -0.42718897847992 0  -0.5796080761878384 0.6375025331582558 0  -0.5686737890628571 -0.6510435601866913 0  0.1471374478051752 -0.382217095965624 0  0.367570301927055 0.1909193223550535 0  0.8716954478736112 0.02914395839180125 0  0.3487459623057126 0.3471068582357988 0  0.1543099947611301 0.1689404724154097 0  -0.07297109638128209 -0.3068109338541753 0  0.2917188534562402 -0.6051822784871949 0  -0.2024804285799746 -0.2430406644266693 0  -0.7781944430042567 0.3778986247265116 0  -0.8494742869240901 0.1173360134018405 0  -0.7720870174071235 -0.4231153023082534 0  -0.449110317890587 -0.7582468751604555 0  0.5545923664877855 0.6602415200552888 0  0.5344562863167422 -0.6858381270857777 0  0.4766344790775262 0.566780609122759 0  -0.445772660902635 0.7601337067632379 0  -0.6616262409933745 0.2552874992358464 0  0.1653545872376546 0.5583524484327292 0  -0.4028773004059317 -0.5214149604035093 0  -0.2990776467406227 -0.6432205051811133 0  0.1120905589734103 -0.1750840530986415 0  0.06398953478431954 0.8829484618446889 0  -0.5251433924072202 0.3874134656159851 0  -0.6099143365137073 -0.2972611803339155 0  -0.04678747567896177 0.6762313351705379 0  -0.533024901227188 -0.4050045909030676 0  0.1246725721343765 0.3745355098341986 0  -0.3000083100373507 -0.4058635916290634 0  -0.06655528087218812 -0.8836517798731542 0  -0.4088769106504622 0.5282941447433156 0  -0.7345489526308654 0.09712579222418664 0  0.1081465349890011 -0.5316255335782825 0  0.8804353520695445 -0.1485109638682795 0  -0.3713419913383989 0.08543731094255294 0  -0.43252237558797 0.3055918258709063 0  0.1125429094389743 0.7322321616258178 0  -0.8927041854393205 -0.02984635711944513 0  -0.06589562952638969 -0.6859291199262957 0  -0.7331201394770802 -0.1069200385835311 0  -0.08867729710384351 -0.414111852980487 0  -0.0447872543388
[...]
<PointData  Scalars="f_28"> 
<DataArray  type="Float64"  Name="f_28"  format="ascii">5.6686008849670388e-01  5.5838476484773547e-01  5.5053450866233578e-01  5.4333788977248254e-01  5.3742865972226328e-01  5.3262557272349809e-01  5.2905759401199870e-01  5.2659136568347442e-01  5.2514199442755694e-01  5.2441441680967649e-01  5.2439184174638676e-01  5.2480470704489035e-01  5.2556173927091809e-01  5.2661167597466307e-01  5.2783960538316088e-01  5.2915339670314787e-01  5.3058444071466415e-01  5.3211882597894877e-01  5.3357317518269098e-01  5.3506173653830191e-01  5.3658209538780710e-01  5.3799885037322570e-01  5.3943629405542837e-01  5.4084759940510629e-01  5.4218708746879463e-01  5.4355665651723772e-01  5.4478133750540847e-01  5.4606093852843207e-01  5.4727760436886053e-01  5.4850768426171803e-01  5.4966457410674141e-01  5.5080285423119280e-01  5.5190550337298772e-01  5.5298574855526816e-01  5.5404929107843248e-01  5.5507101928132818e-01  5.5613828075985872e-01  5.5714882769482243e-01  5.5816669187439805e-01  5.5912622216166497e-01  5.6008730546216956e-01  5.6105298497975331e-01  5.6201672886496201e-01  5.6296367347859466e-01  5.6393018461948552e-01  5.6488692025154452e-01  5.6579794115362603e-01  5.6674471747697741e-01  5.6770223618973814e-01  5.6862934535967380e-01  5.6957570276242064e-01  5.7053811151138700e-01  5.7154135926520255e-01  5.7248329984416357e-01  5.7343083820137497e-01  5.7446484185716085e-01  5.7547777434422087e-01  5.7647615728933876e-01  5.7751141646620885e-01  5.7856278520403226e-01  5.7962950983147177e-01  5.8072340906984588e-01  5.8182566131580982e-01  5.8296732960506559e-01  5.8412410298549433e-01  5.8531568413823620e-01  5.8652319073317116e-01  5.8775421591637467e-01  5.8903455882360400e-01  5.9032745233436668e-01  5.9165607823720157e-01  5.9299545996014569e-01  5.9440914703624048e-01  5.9580206926460288e-01  5.9728653051995406e-01  5.9872617705165232e-01  6.0017386230342595e-01  6.0164045883450457e-01  6.0308033051002152e-01  6.0446474592727384e-01  6.0575015850495939e-01  6.0698350245909860e-01  6.0799142390273875e-01  6.0875931396511718e-01  6.0918059291960835e-01  6.0908663416826081e-01  6.0850427733551526e-01  6.0697046627377360e-01  6.0457612565833341e-01  6.0113171674560451e-01  5.9626086938017930e-01  5.9053963097673245e-01  5.8335790926101316e-01  5.7549135856857048e-01  4.6745170978354500e-01  5.6973326351744658e-01  6.5677694625317051e-01  7.1997782126300314e-01  7.0726708996128829e-01  6.2357085287875902e-01  5.0323814982165882e-01  4.2087327569068889e-01  4.0977287872836687e-01  5.6055612077802652e-01  5.4002754779704676e-01  5.8783189389083657e-01  5.5347269655668652e-01  5.7543852075333846e-01  5.6230842303899109e-01  5.2228754329992078e-01  6.0964316685855902e-01  5.5268825223135121e-01  5.8594703549260063e-01  5.4637385336493638e-01  5.6944440884222924e-01  5.3482518916758759e-01  5.9725510231356160e-01  5.9618758240576908e-01  5.5022200783988284e-01  5.7102657589924333e-01  5.2677211687374370e-01  6.1656458402114389e-01  5.1605590610316232e-01  5.5860355556384056e-01  5.8110277558165346e-01  5.7447577925454152e-01  5.5226245164449372e-01  5.7727292243956629e-01  5.5716104554198864e-01  5.3917803871197845e-01  5.9806781594361813e-01  5.6897953176737814e-01  5.4721579495528327e-01  6.0390150970434719e-01  5.6657464665360591e-01  5.6539866356768709e-01  5.2895011898308941e-01  5.4119102983443657e-01  5.2269249938833628e-01  6.0964228198512516e-01  5.9184268420980068e-01  5.0311429968371246e-01  6.2838997356771120e-01  5.3089172019273034e-01  5.9876531042187342e-01  5.7043352988887575e-01  5.6232966188521083e-01  5.4109882908895346e-01  5.5940539997821193e-01  5.8052990604070698e-01  5.9128366399689647e-01  5.7181489813590636e-01  5.3944427130891492e-01  5.7065100363941246e-01  5.7751250102855034e-01  5.5532164316620469e-01  5.8820993370728836e-01  5.4903123184951985e-01  5.4491221678208013e-01  5.4985505232014598e-01  5.3727184639073888e-01  5.6552466426057024e-01  5.8464012729948900e-01  5.8425708907645979e-01  5.6751301763619511e-01  5.5863049402428488e-01  5.9573644356037503e-01  5.9998324736824726e-01  5.3542532356107264e-01  6.0969058376043250e-01  5.2816660820529815e-01  5.3320724428290689e-01  5.2962158703600093e-01  6.1068094299160358e-01  5.6904960462722698e-01  5.6923158892091652e-01  5.8344745753970129e-01  5.6520732266090279e-01  5.4478130317426687e-01  5.6161982871246952e-01  5.0784870303083618e-01  6.3042783682245607e-01  5.4376583093667308e-01  5.5709697371214428e-01  6.0660922999612110e-01  6.0600478544733083e-01  5.5175388764685074e-01  5.5096180931531458e-01  5.5539031625298441e-01  5.7677560954341389e-01  5.2300343604185673e-01  5.1587480733312141e-01  6.1464019971064665e-01  5.5458314232865569e-01  5.7926096720010767e-01  5.9332352756095008e-01  5.0427004370242900e-01  5.6193006484168162e-01  5.1897911560222776e-01  5.4111496774715806e-01  5.7791321223508074e-01  6.0141458158152705e-01  5.7142510237185928e-01  5.6026882097191377e-01  5.6472879745469162e-01  5.7389092866162050e-01  5.8231290163149863e-01  5.2622620731571113e-01  6.0652544936747010e-01  5.2489810618784305e-01  5.5127558294430967e-01  5.6085240331074837e-01  5.3492437200343945e-01  5.7882707543061052e-01  5.8310478129758569e-01  5.8070671015747821e-01  5.4003420428986804e-01  5.5663859063228671e-01  5.7205466377167979e-01  5.4265533746608441e-01  5.7485757385609404e-01  5.3597729094266156e-01  5.7663863333500609e-01  5.9074336033679742e-01  5.5267278586331814e-01  5.6435973011661245e-01  5.9328880290466779e-01  5.8819784793207497e-01  5.5891634421161251e-01  5.5574028788427610e-01  5.3822386843455028e-01  5.6718213140257301e-01  5.8919611134335925e-01  5.6820127815366306e-01  5.8177021617841240e-01  5.4256467275949327e-01  6.2158893310514951e-01  5.9330867918544894e-01  5.9430707575335950e-01  6.0869821049219042e-01  5.5310515478304556e-01  6.0383094085881051e-01  6.0568872806729368e-01  5.2981308580710951e-01  5.6190995389541709e-01  5.5725357319344049e-01  5.5055593427344518e-01  5.3291004293637878e-01  5.4733672776301767e-01  5.7204327983930270e-01  5.6475476256444279e-01  5.5375678261672967e-01  5.4689006128740136e-01  5.4383506205032872e-01  5.4780575938044485e-01  6.1242702001192606e-01  5.3170791146577723e-01  5.6008185631603336e-01  5.2383369235017307e-01  5.4893357800038378e-01  4.8547804947385892e-01  5.1966538615747526e-01  5.8686888174009899e-01  5.4669790077623603e-01  5.6782030008897466e-01  5.6235026214563666e-01  5.6722854914084242e-01  6.0944846356388638e-01  5.7299673344315616e-01  5.4729308534339560e-01  6.5474289677972008e-01  6.1021616152054903e-01  5.8586952809483661e-01  5.9756244694008931e-01  6.0492146073483855e-01  5.5323009698384318e-01  5.9791739323645277e-01  5.4786545607548909e-01  5.2674633389066139e-01  6.0844498578109041e-01  5.7072122914613532e-01  5.0644618862719892e-01  6.2227342801503627e-01  6.1673323247678902e-01  5.2531306085242324e-01  5.2733805190151151e-01  5.8103665238297164e-01  5.4693209203299376e-01  5.5862012565121433e-01  5.3575615149604172e-01  5.1539161923331855e-01  6.0024627088018212e-01  5.6335226326109866e-01  5.6175091029245794e-01  6.0820967356380295e-01  5.6494109181343355e-01  5.5589690239077805e-01  6.0078228196977990e-01  5.7014756066280525e-01  5.3569885183945054e-01  5.4083494888937689e-01  5.5302167499752553e-01  6.0666992960162702e-01  5.8406061352120364e-01  5.7586736523653403e-01  5.2274147495378664e-01  5.9880333674011976e-01  5.3530345983744121e-01  5.6298836117084994e-01  5.7632280110605316e-01  5.8782877093415831e-01  5.4454959708709250e-01  5.8339128576823851e-01  5.8051901741475276e-01  5.2498399945006746e-01  5.2512854611502890e-01  5.3619206936844965e-01  5.8817956475087629e-01  5.8623385182603405e-01  5.6266024664481495e-01  5.2111900422208279e-01  5.8354935868682734e-01  5.6102512447916475e-01  4.8406376331702827e-01  5.7311897653476407e-01  6.3760125550438151e-01  5.9441794920422808e-01  5.8889551031815179e-01  5.4973736272974294e-01  5.6941042085688731e-01  5.7319151969078741e-01  5.5049955277093310e-01  5.7207762612469559e-01  5.7808117915353419e-01  5.3402565698546878e-01  5.7523313055737013e-01  5.6080698573348942e-01  5.4087085336360907e-01  5.3685393456244757e-01  5.4030047815800430e-01  5.7370180917015356e-01  5.5346000860240485e-01  5.9178269692576213e-01  6.1360258408943458e-01  5.6016154244218996e-01  6.4019509998739110e-01  6.0090887920301672e-01  5.4419203572705022e-01  5.7149974619302535e-01  5.5592661322314574e-01  5.2623841484581191e-01  5.8804533910836776e-01  6.1091237886798844e-01  5.8556326738949693e-01  6.0259269938299553e-01  5.3785823259405785e-01  5.9776883395618452e-01  5.5371417297593595e-01  5.5696404625006779e-01  5.5480093809088449e-01  5.7594977527647528e-01  5.7619481294722030e-01  5.7659301807196472e-01  5.7939722318068687e-01  5.8076142415168808e-01  4.9968849592050829e-01  5.6909587543762596e-01  5.3189809421758261e-01  6.0922081335025335e-01  5.8099016016002647e-01  5.8292631537015105e-01  5.6497396976914538e-01  5.9570223007942746e-01  5.8914467902755141e-01  5.8748894997234324e-01  5.6554062057444299e-01  6.0219670338454645e-01  5.6499149513157243e-01  5.6396705063226249e-01  5.3932964520697957e-01  5.5124390224109443e-01  5.6915184350680448e-01  5.6742632448592056e-01  5.3728594143605324e-01  5.3620617915240398e-01  5.0960944381488016e-01  5.2946323422709252e-01  5.6532875620283174e-01  5.8015448008577208e-01  5.4825938497624893e-01  5.9510211839307026e-01  5.9000039686911709e-01  5.6742965243386057e-01  5.4316056664515122e-01  5.6053599002744470e-01  5.5770171769060495e-01  5.5841950790691541e-01  5.5834131601222692e-01  5.7818720493512765e-01  5.3195524023971985e-01  5.5465176797903326e-01  5.9216170622319375e-01  5.6795682961895622e-01  6.0107225211012849e-01  5.9382370363744597e-01  5.6602390781392031e-01  5.4862140340299670e-01  5.3101529895281641e-01  5.8551670790508192e-01  5.6915083044968962e-01  5.4439186416800789e-01  5.5544225924475599e-01  5.6375881340455714e-01  6.1064765441490720e-01  5.1977217018802302e-01  5.5932969425044354e-01  5.6317461902861488e-01  5.6229696801940654e-01  6.0734984164158556e-01  6.1802727362407361e-01  6.1056379554753204e-01  5.2712933570307252e-01  5.7346726320292130e-01  5.4152571083152878e-01  5.2805473351443000e-01  5.4964617200976129e-01  5.6220214182723838e-01  5.8920588596646151e-01  5.2448888803012017e-01  6.0542748083698505e-01  5.3223441989918840e-01  5.2409490604537368e-01  5.2492813399758731e-01  5.3396570440175550e-01  5.2890695540258981e-01  5.7412891168581603e-01  5.8841669803136221e-01  6.2465207879132190e-01  5.7826553813739778e-01  4.7995506921940129e-01  5.5280474357610632e-01  5.5777076940110559e-01  5.5660178645299585e-01  5.0894594644369417e-01  5.2236262998450311e-01  5.6760521758209170e-01  5.5708728901164328e-01  5.5573999265680418e-01  5.4455791095328976e-01  5.4551872490122777e-01  5.4178627085344944e-01  6.1424466402586020e-01  5.4259067538871641e-01  5.4789393052497903e-01  5.6073208724400869e-01  5.9430205233471023e-01  5.4761073662592774e-01  5.5417995017513355e-01  5.7232308830075851e-01  5.4349998910581576e-01  5.5330354265324688e-01  5.5011950321614156e-01  5.4888069882176138e-01  5.5206123891941117e-01  5.1987802865566712e-01  6.0516993984312328e-01  6.4090320503786458e-01  5.9873727371173491e-01  5.8657313882753448e-01  5.9999767754712818e-01  5.7788132483783217e-01  5.6257479221103468e-01  6.1162740802998317e-01  5.5092581552256248e-01  5.4050272533841337e-01  5.3363784206234011e-01  5.4532541827010650e-01  6.6065066425263230e-01  6.1279969910482857e-01  5.2455183132650773e-01  5.8670155844410643e-01  5.9203670357341454e-01  5.5963983565643627e-01  6.0700384988578693e-01  5.2689617647767872e-01  5.5968429203237169e-01  5.1404889096600503e-01  5.0992684330433602e-01  5.5979808760274963e-01  5.7484030285448562e-01  5.2077068719209330e-01  5.5206555267381174e-01  5.5153901748230538e-01  5.2647938453009313e-01  5.5954940379359708e-01  5.1689529713505256e-01  5.9736288202269350e-01  5.8885968332596439e-01  5.5519120794234544e-01  5.2026619822311082e-01  5.3499649454671638e-01  6.0789878966597621e-01  6.0501924659608497e-01  5.2042869886374588e-01  5.2200231959047461e-01  5.5527539163421880e-01  5.7372224196582955e-01  6.0234062079850625e-01  5.9920325453555223e-01  5.7833657746469436e-01  5.9632607009225480e-01  5.5631466704454147e-01  5.5067321638537359e-01  5.3253624071942918e-01  5.6680636683929331e-01  5.6270804721168510e-01  5.3087365316265533e-01  5.8295226987964810e-01  5.4267973058167773e-01  5.7360211470661648e-01  5.4849372481153158e-01  5.6388322543433822e-01  5.6671491544476493e-01  5.8142748166584080e-01  5.6435024557435542e-01  5.8485529693545057e-01  6.0604523380454423e-01  5.3194971672473235e-01  6.0969133672953102e-01  5.6543621104222141e-01  5.7049920552008504e-01  5.6286488779812138e-01  5.7488134664992663e-01  5.6690531093851237e-01  5.6276261983812559e-01  5.8335645983394568e-01  5.6824522148418544e-01  5.2301348284714322e-01  5.6969513694944640e-01  5.7703662377682197e-01  5.6790786778199831e-01  5.2857361040878204e-01  5.6637054254943220e-01  5.6100010347399498e-01  6.0522532040573573e-01  5.7003335776513364e-01  5.3249498870050915e-01  5.3453418440873324e-01  5.7072958689966713e-01  5.4553574518700731e-01  5.9933823983994927e-01  5.8022904372889017e-01  5.4290824326448761e-01  5.6257490590378367e-01  5.3244626147704677e-01  5.7862847953817620e-01  6.0849184392146471e-01  6.1689635025648748e-01  5.3034996814521629e-01  6.0249455785327088e-01  5.7286458642134630e-01  5.5200639825101427e-01  5.7908684715117320e-01  5.5726674791290232e-01  5.7400947274254932e-01  5.7307513911531294e-01  5.5695829838223243e-01  5.8436678723920665e-01  5.7080283331323822e-01  5.3850060101575503e-01  5.8300640059992970e-01  5.8201614274103575e-01  5.9652624592962333e-01  5.9320238577237361e-01  5.8203151543882570e-01  5.5159000606306730e-01  5.5018251313509425e-01  5.5092547675116377e-01  5.2360911345291283e-01  5.7303518367062689e-01  5.5453971135409896e-01  5.8811031618005938e-01  5.8162179367946953e-01  5.6146393713993492e-01  5.4298334932121206e-01  4.8113493871009666e-01  5.1814715432444203e-01  6.0219419956365294e-01  5.4021327153624854e-01  5.2402186897967440e-01  5.8648412905716207e-01  5.3712449220761582e-01  5.4778914164887382e-01  5.3873027663142148e-01  5.5414822496303673e-01  5.9369940079739991e-01  5.6166437907821987e-01  5.6173239670219532e-01  5.5962220628626991e-01  5.0910157916118415e-01  5.9971054953796044e-01  5.2522374639231206e-01  5.9025129786150332e-01  6.1050331038891492e-01  5.7419893034793834e-01  5.2452480763586840e-01  5.7998595305244227e-01  5.7717238240039803e-01  5.5869201350109354e-01  5.7158249495061508e-01  5.3855611922273450e-01  5.2693774097350687e-01  5.8979020404068538e-01  5.8724591000195547e-01  5.9995064359689931e-01  5.2398439719463152e-01  5.2599886792296846e-01  5.7564807726621037e-01  5.7810238758212462e-01  5.4073360022950290e-01  6.0777040242452884e-01  6.0811522584750177e-01  5.1297572454090279e-01  5.9550591043196954e-01  5.7979470520157672e-01  5.9618699972139277e-01  5.7592467227176614e-01  5.7876339042225655e-01  4.5979704790171066e-01  5.6359802385164104e-01  6.3714247542172875e-01  5.8949860543860411e-01  5.9030746164130166e-01  5.9134351652922545e-01  6.1315273274378734e-01  5.7506451885359611e-01  5.7512429407919030e-01  5.7622598413618997e-01  5.4754544801554006e-01  5.9065090143885857e-01  5.5427576085087649e-01  5.4659939751699282e-01  5.3853373419808193e-01  5.5925948553369231e-01  6.1089955607641799e-01  5.7334943727351317e-01  5.4800899403128434e-01  6.0900960206468513e-01  6.4036281034710718e-01  5.5129286797035693e-01  5.3028126835455058e-01  5.7084482115033020e-01  5.8559632711086096e-01  5.8470613991282794e-01  5.6037969469508153e-01  5.5198472196807791e-01  5.4750825137907932e-01  6.1597382031847858e-01  6.2728353984409968e-01  5.5597687177593669e-01  5.7519176985438558e-01  6.0103229201138808e-01  5.9846575035932414e-01  5.5251720390738912e-01  5.8406986513450021e-01  5.9453419746834113e-01  5.8854648963377254e-01  5.9364649276728665e-01  5.5450469397104329e-01  5.3787467544630718e-01  5.3975918878439522e-01  5.3659815713920489e-01  5.5556912717031648e-01  5.5345593269645099e-01  5.7131216568509502e-01  5.6690736776084061e-01  5.4842028266674669e-01  6.1328304838962877e-01  5.3292201491593916e-01  5.6327658561228566e-01  5.4908263947783442e-01  5.7209447277968550e-01  5.3609049991738122e-01  5.8176195640666806e-01  5.6862855318975747e-01  5.6914828408121187e-01  5.6869340392069545e-01  5.4888157489809197e-01  6.0445212666220849e-01  5.3217702292884694e-01  5.1506535243721085e-01  5.7390625452766220e-01  5.7162939477312780e-01  6.0678277812105208e-01  5.4369018959823467e-01  6.0171025991964489e-01  5.3820874055694656e-01  5.6674762092627062e-01  5.5737621816018468e-01  5.4816687203547609e-01  5.8838567026087496e-01  5.4176827046464215e-01  5.3757498562088557e-01  5.7223003361681879e-01  5.4115510865653527e-01  5.8108848788218437e-01  5.8272037715198621e-01  5.8196532723254923e-01  5.9552804210473154e-01  5.4624808539783887e-01  5.5908143223292994e-01  5.5533727209262473e-01  5.5790997169522871e-01  6.0378800121041543e-01  5.6884089931853954e-01  6.1850635123638531e-01  4.9181732424878788e-01  4.9415960297574896e-01  5.0003805938838497e-01  5.5435569812083507e-01  6.0959530560737030e-01  5.9509189909488891e-01  5.9283981826712184e-01  5.5224885733165430e-01  6.0521617691778495e-01  6.0350103470356553e-01  6.0728944300312004e-01  5.4600352298872801e-01  5.5625146391546809e-01  6.0320667723788535e-01  5.3362133616822138e-01  5.9632557946409070e-01  5.4687563161803321e-01  6.0804490829535673e-01  5.4988952439933214e-01  5.2957463303066643e-01  5.3072389649688922e-01  5.5775720269491225e-01  5.5005235463064717e-01  5.5035118440588393e-01  6.0361984061319041e-01  5.3055777539554594e-01  5.6973790753424791e-01  5.2746785412820674e-01  5.6147571809317587e-01  5.4270056694268498e-01  6.2176925827045537e-01  5.7341213274540426e-01  5.6488689828015559e-01  5.4310594801955825e-01  5.2393669688122091e-01  6.0910252075992843e-01  5.4720649254041143e-01  5.5239416752094173e-01  5.6677194372844308e-01  5.4931968412282839e-01  5.4555478191533247e-01  5.9269280021827675e-01  5.4606576746420643e-01  5.4536262707281424e-01  5.4202850946734893e-01  5.9268520612665632e-01  5.9530778968684905e-01  5.6648617977382021e-01  5.5512377633776033e-01  5.4710916071971127e-01  6.2222508345329619e-01  6.2868277708120757e-01  6.1760319433441435e-01  5.2419993206291327e-01  5.6196999081621313e-01  6.0711528232669643e-01  5.5905239059820966e-01  5.6099521561067467e-01  5.6137540431256971e-01  5.4531621722572776e-01  5.3059772940166727e-01  5.4125802150415814e-01  5.6386141297270242e-01  5.4550687611965321e-01  6.0311756556046314e-01  5.2332532428330381e-01  5.6350228694522253e-01  5.6375018582234093e-01  4.9940388963896498e-01  5.2388068954845801e-01  5.1745803118038414e-01  5.8563343761511466e-01  5.9106250656565196e-01  5.6823296618541963e-01  5.6613001261611284e-01  5.6635644967705501e-01  5.3387634089455716e-01  5.7469312928921346e-01  5.4431971498326892e-01  5.4944350911307449e-01  5.9798681640730378e-01  5.6713572950280189e-01  5.6771622981639136e-01  5.6791312651343540e-01  5.6253613556808402e-01  5.5352392383590820e-01  5.8713028498984510e-01  5.4157113796545397e-01  5.5374598282858800e-01  5.5928345735547569e-01  5.5673127806422695e-01  5.9911642370750562e-01  5.9662694301533459e-01  6.0930810396310853e-01  5.4651773596377995e-01  5.5217523042833860e-01  5.7146965555851748e-01  5.8192442336265182e-01  5.3682656398383122e-01  5.7040218498597717e-01  5.5796569815353858e-01  5.5796530443793069e-01  5.5903360917708989e-01  5.1738579114035543e-01  5.2112721285579144e-01  5.7974341569921661e-01  5.8292100616045517e-01  5.7597850775183101e-01  6.0667585853100803e-01  5.3028506368353523e-01  5.3324033603758869e-01  5.4502787063814662e-01  6.1327863909201707e-01  5.2810972473311979e