<?xml version="1.0"?>
<VTKFile type="UnstructuredGrid"  version="0.1"  >
<UnstructuredGrid>
<Piece  NumberOfPoints="1890" NumberOfCells="3574">
<Points>
<DataArray  type="Float64"  NumberOfComponents="3"  format="ascii">1 0 0  0.9977668786231532 0.06679263374512155 0  0.9910774881547801 0.1332869553737788 0  0.9799617050365869 0.1991859851038361 0  0.9644691750543766 0.264195401871286 0  0.9446690916079188 0.3280248578395691 0  0.9206498866764288 0.3903892751634948 0  0.8925188358598812 0.4510101192161018 0  0.8604015792601394 0.5096166425919174 0  0.8244415603417603 0.5659470943305952 0  0.784799385278661 0.6197498889602449 0  0.7416521056479576 0.6707847301392235 0  0.6951924276746423 0.7188236838779293 0  0.6456278515588024 0.7636521965473321 0  0.5931797447293553 0.8050700531275629 0  0.5380823531633727 0.842892271416797 0  0.4805817551866838 0.8769499282066715 0  0.420934762428335 0.9070909137343407 0  0.3594077728375128 0.9331806110416025 0  0.2962755808856342 0.9551024972069124 0  0.2318201502675284 0.9727586637650372 0  0.1663293545831299 0.9860702539900286 0  0.1000956916240984 0.994977815088504 0  0.03341497700767464 0.9994415637302546 0  -0.03341497700767452 0.9994415637302546 0  -0.1000956916240983 0.994977815088504 0  -0.16632935458313 0.9860702539900286 0  -0.2318201502675281 0.9727586637650372 0  -0.2962755808856338 0.9551024972069124 0  -0.3594077728375129 0.9331806110416025 0  -0.4209347624283349 0.9070909137343408 0  -0.4805817551866837 0.8769499282066716 0  -0.5380823531633726 0.8428922714167971 0  -0.5931797447293552 0.805070053127563 0  -0.6456278515588024 0.7636521965473321 0  -0.6951924276746423 0.7188236838779293 0  -0.7416521056479576 0.6707847301392235 0  -0.784799385278661 0.6197498889602449 0  -0.8244415603417601 0.5659470943305954 0  -0.8604015792601392 0.5096166425919177 0  -0.8925188358598811 0.4510101192161021 0  -0.9206498866764287 0.3903892751634951 0  -0.9446690916079189 0.3280248578395689 0  -0.9644691750543765 0.2641954018712862 0  -0.9799617050365867 0.1991859851038363 0  -0.99107748815478 0.133286955373779 0  -0.9977668786231532 0.0667926337451217 0  -1 -3.216245299353273e-16 0  -0.9977668786231532 -0.06679263374512145 0  -0.9910774881547801 -0.1332869553737783 0  -0.9799617050365869 -0.1991859851038361 0  -0.9644691750543766 -0.264195401871286 0  -0.9446690916079188 -0.3280248578395691 0  -0.9206498866764288 -0.3903892751634949 0  -0.8925188358598815 -0.4510101192161015 0  -0.8604015792601394 -0.5096166425919175 0  -0.8244415603417605 -0.5659470943305949 0  -0.7847993852786611 -0.6197498889602446 0  -0.7416521056479575 -0.6707847301392236 0  -0.6951924276746424 -0.7188236838779292 0  -0.6456278515588025 -0.7636521965473319 0  -0.593179744729355 -0.8050700531275631 0  -0.5380823531633728 -0.842892271416797 0  -0.4805817551866835 -0.8769499282066716 0  -0.4209347624283351 -0.9070909137343407 0  -0.3594077728375134 -0.9331806110416024 0  -0.296275580885634 -0.9551024972069124 0  -0.2318201502675288 -0.9727586637650371 0  -0.1663293545831301 -0.9860702539900286 0  -0.1000956916240988 -0.994977815088504 0  -0.03341497700767455 -0.9994415637302546 0  0.03341497700767418 -0.9994415637302546 0  0.1000956916240984 -0.994977815088504 0  0.1663293545831297 -0.9860702539900286 0  0.2318201502675284 -0.9727586637650372 0  0.2962755808856337 -0.9551024972069125 0  0.3594077728375122 -0.9331806110416029 0  0.4209347624283348 -0.9070909137343408 0  0.4805817551866832 -0.8769499282066718 0  0.5380823531633725 -0.8428922714167971 0  0.5931797447293548 -0.8050700531275633 0  0.6456278515588023 -0.7636521965473321 0  0.6951924276746418 -0.7188236838779297 0  0.7416521056479575 -0.6707847301392235 0  0.7847993852786612 -0.6197498889602446 0  0.8244415603417603 -0.5659470943305952 0  0.8604015792601392 -0.5096166425919179 0  0.8925188358598808 -0.4510101192161026 0  0.9206498866764287 -0.3903892751634952 0  0.9446690916079188 -0.328024857839569 0  0.9644691750543765 -0.2641954018712863 0  0.9799617050365869 -0.199185985103836 0  0.99107748815478 -0.1332869553737791 0  0.9977668786231532 -0.06679263374512227 0  0.5766044443118978 0.06427876096865393 0  0.6 0 0  0.5766044443118978 -0.06427876096865397 0  0.517364817766693 -0.09848077530122082 0  0.45 -0.08660254037844384 0  0.4060307379214091 -0.03420201433256687 0  0.4060307379214091 0.03420201433256689 0  0.45 0.08660254037844388 0  0.5173648177666931 0.0984807753012208 0  -0.2965686451888956 -3.216245299353273e-16 0  0.02995799338450739 0.4463820650390996 0  0.02995799338450775 -0.4463820650390995 0  -0.3955719483658615 0.4150379846043291 0  -0.4169105514339966 -0.4032046590493156 0  -0.6262911543602625 0.1406750128378851 0  0.4099697941225568 0.4649562806856727 0  0.4099697941225571 -0.4649562806856725 0  0.05127126517818126 0.08817401780249684 0  -0.1831682142260297 -0.6686721086721615 0  -0.1831682142260294 0.6686721086721619 0  -0.6520464330424147 -0.1814832365373373 0  0.2091634468672813 0.6766366337832459 0  0.1883365569596445 -0.6875396105945327 0  0.2159040325791659 -0.2383848214817743 0  -0.1744543149380852 0.2484563274625736 0  -0.06716122455575962 -0.1748068953293204 0  0.2513036159616241 0.2568747514607447 0  0.6477088057990819 -0.3356515765545967 0  0.6477088057990816 0.3356515765545969 0  -0.6429348001755962 0.3888615828205575 0  -0.4176911395802332 -0.639529979133491 0  -0.6487907438517166 -0.4141725603623674 0  -0.4382859878713386 0.638471665172117 0  -0.1883060146004528 -0.3712832336183189 0  -0.4093410988944064 0.1924263534676403 0  0.7784262897673441 0.1313041761919452 0  0.7692266286696862 -0.1588101168391893 0  -0.3273037620396328 -0.2103878546156154 0  -0.1798454764806241 0.458542771899162 0  0.4017553023960708 -0.6784121172515977 0  -0.7833260349743965 -0.008879310202590557 0  -0.4794205971237819 -0.08072648637784163 0  0.4174224539707952 0.6731117436251652 0  0.01086072875173043 0.7779172259216657 0  0.5993482410529842 0.529941331081667 0  0.5800727149699484 -0.5610028828936883 0  -0.002913066865704084 -0.7863475463243047 0  0.4644692980420977 0.281953550413786 0  0.4644692980420981 -0.281953550413786 0  0.2204900511885566 0.4449044634307799 0  0.2180189937406393 -0.4954600835645215 0  0.2060327886352148 -0.03858259979572255 0  -0.7808481637664745 0.2422213783127347 0  0.06990549121986947 0.2690208389553115 0  -0.1124194025531066 0.00373323440863213 0  -0.2838372182411008 -0.5216724848805774 0  0.03130371177689495 -0.6180840640285581 0  -0.7762218745645899 -0.2989562490519654 0  0.05214597457400483 0.613977754767665 0  -0.4956543915012957 -0.251170934148539 0  -0.5275381827985767 -0.5210032025475994 0  -0.5301696116286927 0.5051064981533095 0  -0.16809888692682 -0.8270183856644552 0  -0.3240121076586466 0.7657967722683376 0  -0.1438288839385778 0.8257307941019953 0  -0.2998557134907758 0.5617360107302967 0  0.1684367173033988 0.8286804545679113 0  -0.6250110225296729 -0.01789111552180164 0  -0.3137113036339798 -0.7609856814941814 0  -0.1170075000122383 -0.518790272865666 0  0.05108989091758273 -0.06990257622780319 0  -0.5427150590508653 0.270931066435428 0  0.1429967624415053 -0.8342737229435346 0  0.2997239097253987 -0.7923562376371267 0  0.2676893696803808 0.1031671400466477 0  0.3261287713905652 -0.3403712992466087 0  0.7950089908879098 0.2858943947941835 0  0.3151824699376609 0.7865115564528017 0  0.3115634426834656 0.5726907027982669 0  0.704039443019545 -0.4753841151972395 0  0.7470219429290336 -0.01290298646666185 0  -0.8321235529347469 -0.1551998530807213 0  0.05709269783870959 -0.2835250962999872 0  -0.2021447182543711 -0.1140175740005167 0  -0.05854661192244001 0.3332686099592011 0  -0.4944752806394075 0.06870205217856792 0  0.6465785626300955 0.1909460270059954 0  0.6150172073263744 -0.1992156468339642 0  -0.08321382237958147 0.5651617303365446 0  -0.6720985235143602 0.5299695767353035 0  0.3081627102340266 -0.1336818188805801 0  0.7954182263431147 -0.306979485853048 0  -0.0801862748968569 0.1421281857867356 0  -0.2704290205461716 0.3511058548763765 0  -0.2733876063765904 0.1428439818287992 0  -0.6630142665634642 -0.5525422555121322 0  0.7250705628492369 0.4580712316052048 0  0.5291222693526491 0.4008241947929737 0  0.543461903937986 -0.42718897847992 0  -0.5796080761878384 0.6375025331582558 0  -0.5686737890628571 -0.6510435601866913 0  0.1471374478051752 -0.382217095965624 0  0.367570301927055 0.1909193223550535 0  0.8716954478736112 0.02914395839180125 0  0.3487459623057126 0.3471068582357988 0  0.1543099947611301 0.1689404724154097 0  -0.07297109638128209 -0.3068109338541753 0  0.2917188534562402 -0.6051822784871949 0  -0.2024804285799746 -0.2430406644266693 0  -0.7781944430042567 0.3778986247265116 0  -0.8494742869240901 0.1173360134018405 0  -0.7720870174071235 -0.4231153023082534 0  -0.449110317890587 -0.7582468751604555 0  0.5545923664877855 0.6602415200552888 0  0.5344562863167422 -0.6858381270857777 0  0.4766344790775262 0.566780609122759 0  -0.445772660902635 0.7601337067632379 0  -0.6616262409933745 0.2552874992358464 0  0.1653545872376546 0.5583524484327292 0  -0.4028773004059317 -0.5214149604035093 0  -0.2990776467406227 -0.6432205051811133 0  0.1120905589734103 -0.1750840530986415 0  0.06398953478431954 0.8829484618446889 0  -0.5251433924072202 0.3874134656159851 0  -0.6099143365137073 -0.2972611803339155 0  -0.04678747567896177 0.6762313351705379 0  -0.533024901227188 -0.4050045909030676 0  0.1246725721343765 0.3745355098341986 0  -0.3000083100373507 -0.4058635916290634 0  -0.06655528087218812 -0.8836517798731542 0  -0.4088769106504622 0.5282941447433156 0  -0.7345489526308654 0.09712579222418664 0  0.1081465349890011 -0.5316255335782825 0  0.8804353520695445 -0.1485109638682795 0  -0.3713419913383989 0.08543731094255294 0  -0.43252237558797 0.3055918258709063 0  0.1125429094389743 0.7322321616258178 0  -0.8927041854393205 -0.02984635711944513 0  -0.06589562952638969 -0.6859291199262957 0  -0.7331201394770802 -0.1069200385835311 0  -0.08867729710384351 -0.414111852980487 0  -0.0447872543388
[...]
<PointData  Scalars="f_28"> 
<DataArray  type="Float64"  Name="f_28"  format="ascii">-8.2292439373496573e-01  -8.3213586323817879e-01  -8.4064326023784797e-01  -8.4838326500941053e-01  -8.5480978598050594e-01  -8.6003318957400388e-01  -8.6380986712736374e-01  -8.6646257067126065e-01  -8.6800947471338930e-01  -8.6876346860391529e-01  -8.6874490072513766e-01  -8.6825880194014238e-01  -8.6740725158209497e-01  -8.6624435477417150e-01  -8.6486641660653840e-01  -8.6340394482892946e-01  -8.6182675732891711e-01  -8.6015107140689306e-01  -8.5855593658709473e-01  -8.5692179219677211e-01  -8.5527484266969089e-01  -8.5372667700636407e-01  -8.5216684417140653e-01  -8.5065485742600533e-01  -8.4919111752869447e-01  -8.4772013803162038e-01  -8.4640114881274120e-01  -8.4501861783342669e-01  -8.4371810980610462e-01  -8.4240097456328711e-01  -8.4116451617939691e-01  -8.3994594487547547e-01  -8.3876572719559983e-01  -8.3760603354529872e-01  -8.3647112665625634e-01  -8.3537591224942587e-01  -8.3423991002219000e-01  -8.3316587610222603e-01  -8.3207382967150001e-01  -8.3104787279495917e-01  -8.3001983243512878e-01  -8.2897877497487926e-01  -8.2795654797949458e-01  -8.2692979517043486e-01  -8.2590028117730774e-01  -8.2487822506140551e-01  -8.2389922277876992e-01  -8.2287900501886357e-01  -8.2184304774725025e-01  -8.2084742696161517e-01  -8.1982398223613584e-01  -8.1878392896759711e-01  -8.1770891713136451e-01  -8.1668833099188354e-01  -8.1565922233989774e-01  -8.1454383707615197e-01  -8.1345298331230975e-01  -8.1237521197219709e-01  -8.1124297238020560e-01  -8.1010912384673839e-01  -8.0894980229621483e-01  -8.0776033179366458e-01  -8.0656202457414417e-01  -8.0533499086169325e-01  -8.0407289545988248e-01  -8.0278619343291024e-01  -8.0147390987033817e-01  -8.0014557443679069e-01  -7.9876639343692168e-01  -7.9737045510085214e-01  -7.9593280103651487e-01  -7.9448343396552312e-01  -7.9297518530357192e-01  -7.9146708968657109e-01  -7.8987664856517681e-01  -7.8834907326574333e-01  -7.8678878128224405e-01  -7.8522954110283827e-01  -7.8368215315817213e-01  -7.8220250614918296e-01  -7.8083494106998319e-01  -7.7953125876262830e-01  -7.7845347329049319e-01  -7.7764232094214336e-01  -7.7720832297939402e-01  -7.7729726089562745e-01  -7.7794898475589180e-01  -7.7958845814264055e-01  -7.8214917869371958e-01  -7.8587982159553194e-01  -7.9108024588304393e-01  -7.9732888352697429e-01  -8.0503267265811573e-01  -8.1367991067616030e-01  -9.3854210556232687e-01  -8.3464608355586301e-01  -7.3739576253408556e-01  -6.6110119057897232e-01  -6.7678720137498249e-01  -7.7559300248575602e-01  -9.0949559926808798e-01  -9.8386831331849989e-01  -9.9516702186368777e-01  -8.4491310788149931e-01  -8.6073173832883643e-01  -8.0928781197598254e-01  -8.4293931907874609e-01  -8.1910983911440460e-01  -8.3157235968100640e-01  -8.7420111641653742e-01  -7.8014570651790571e-01  -8.5528750235696382e-01  -8.0456368403481127e-01  -8.4716669781484444e-01  -8.2299759620060020e-01  -8.5914863779523543e-01  -7.9181180666383233e-01  -8.0238060509413855e-01  -8.5529157947235646e-01  -8.3536834326080300e-01  -8.7574986392403720e-01  -7.7114038066147161e-01  -8.7935456680127566e-01  -8.3311074291512321e-01  -8.0860695936725746e-01  -8.1574857473168494e-01  -8.3950789568551876e-01  -8.2244036101249574e-01  -8.4328562627423009e-01  -8.5436942159322460e-01  -7.9109500433310109e-01  -8.3273788337329291e-01  -8.5206551600273361e-01  -7.8360890634395519e-01  -8.2408890167330917e-01  -8.3327554451752217e-01  -8.6434807039354600e-01  -8.5125802788144656e-01  -8.7115363524086853e-01  -7.7734384475618012e-01  -7.9661600749964323e-01  -8.9569012034693773e-01  -7.6082049270508634e-01  -8.6834352405317694e-01  -7.9410525039778190e-01  -8.3285163991963695e-01  -8.2824998029487362e-01  -8.6428604142429344e-01  -8.4949907416977111e-01  -8.1304749508258667e-01  -8.0041497123012728e-01  -8.1791456328753109e-01  -8.5628125279712963e-01  -8.2516203518108422e-01  -8.1288478838245393e-01  -8.3693276711096898e-01  -8.0002135114965023e-01  -8.4232377304081874e-01  -8.4667490478200635e-01  -8.4486202092298401e-01  -8.5485541332738479e-01  -8.2858720304092448e-01  -8.0405729789328395e-01  -8.1075957707507373e-01  -8.3954211855558591e-01  -8.3650155889970956e-01  -7.9187277486268681e-01  -7.8731095127905815e-01  -8.6801246516162101e-01  -7.8342627737288351e-01  -8.6518348000822731e-01  -8.5926279080296131e-01  -8.6577884263447580e-01  -7.7600819705351909e-01  -8.2407734775069097e-01  -8.2058626831789028e-01  -8.1858545469451938e-01  -8.4139869607436413e-01  -8.5948254737811969e-01  -8.3688676930724393e-01  -8.8974759847064278e-01  -7.5805766691865606e-01  -8.5305533796759603e-01  -8.3353786648496331e-01  -7.8954617197042343e-01  -7.8118351275172926e-01  -8.5665634044960259e-01  -8.4999286312056710e-01  -8.4999245385834410e-01  -8.1231235323485518e-01  -8.7052254455962252e-01  -8.8023515326236423e-01  -7.7346513407190198e-01  -8.3618647812936697e-01  -8.0960785070835195e-01  -8.0394804230133743e-01  -8.9662501879875423e-01  -8.2875369396347265e-01  -8.8048830233011843e-01  -8.6443950185009188e-01  -8.2464605844994532e-01  -7.8808144656241663e-01  -8.3220477645535884e-01  -8.3009885258527250e-01  -8.2535748274077192e-01  -8.1534040366821836e-01  -8.0621582672572945e-01  -8.6685075111903198e-01  -7.8023097558386345e-01  -8.6935146180595180e-01  -8.3960498777827008e-01  -8.3149641370165295e-01  -8.6187115875067544e-01  -8.1317409081064240e-01  -8.0735066293057800e-01  -8.2280433826452992e-01  -8.5166143319135768e-01  -8.3732116768202780e-01  -8.2012946695377953e-01  -8.5142143689573657e-01  -8.1727108377315127e-01  -8.6622280620626768e-01  -8.2020911173390643e-01  -7.9705591853397273e-01  -8.4110806565108820e-01  -8.2713163086241526e-01  -8.0023788569734466e-01  -8.0023138266765304e-01  -8.4397437350660498e-01  -8.4204180568495657e-01  -8.5495721471288688e-01  -8.2253712547935853e-01  -8.0107664284002678e-01  -8.2300086928634109e-01  -8.1703000065815123e-01  -8.4899069306606501e-01  -7.7058708622464844e-01  -7.9427408679259914e-01  -7.9451081386918221e-01  -7.8303993294447261e-01  -8.5273619342792850e-01  -7.8298325545784497e-01  -7.8301837593404311e-01  -8.6276573471437723e-01  -8.4012806106985471e-01  -8.5045194536490498e-01  -8.4696179722269305e-01  -8.6512318826438339e-01  -8.4428365589312693e-01  -8.2570343479519503e-01  -8.3947179995739685e-01  -8.4873024567057631e-01  -8.4914321251598801e-01  -8.5634941821884847e-01  -8.5498506588893741e-01  -7.7570591659331090e-01  -8.6189615402777187e-01  -8.3670574619901239e-01  -8.6942760943822839e-01  -8.4381474593884587e-01  -9.1398969546605846e-01  -8.7487774126271634e-01  -8.1421622691952888e-01  -8.4443524208130472e-01  -8.3159235318010383e-01  -8.3964945180099604e-01  -8.2784907422111875e-01  -7.7704295433265125e-01  -8.2727920771768659e-01  -8.6025703277841836e-01  -7.3184006435671400e-01  -7.7786212911711372e-01  -8.0225953499141922e-01  -7.9338573905266008e-01  -7.8721979194609204e-01  -8.5413625588315167e-01  -7.8928379505177015e-01  -8.5882809302253815e-01  -8.6633518767668993e-01  -7.7822071310299767e-01  -8.1869246226647552e-01  -8.9086280766115822e-01  -7.6603543177682853e-01  -7.7285938958535272e-01  -8.7284641008517672e-01  -8.7349935015262548e-01  -8.0901382200593808e-01  -8.4493235371767406e-01  -8.3167501903289642e-01  -8.6373849006545800e-01  -8.8232030172402165e-01  -7.8793564181328768e-01  -8.2661472550294957e-01  -8.2832555220696136e-01  -7.7835046803709496e-01  -8.4307366494753977e-01  -8.5307837873582049e-01  -7.9423810356577829e-01  -8.2035091015559736e-01  -8.6850270920487282e-01  -8.6272463259797294e-01  -8.3766972246818794e-01  -7.8075875126650052e-01  -8.0421712396902345e-01  -8.1339060027042365e-01  -8.7116353457401885e-01  -7.8899947766146206e-01  -8.5674165503906130e-01  -8.4554581661613959e-01  -8.2867390216862979e-01  -8.0488265445865836e-01  -8.4814123867052238e-01  -8.0880839781850966e-01  -8.1567495440949445e-01  -8.6809691407588141e-01  -8.6950145885185837e-01  -8.5653660936261555e-01  -8.0100724749441510e-01  -8.0278037148744341e-01  -8.2901804653298417e-01  -8.7417175980090145e-01  -8.1685877878370050e-01  -8.4676426749170663e-01  -9.1577440224610207e-01  -8.1682858757860544e-01  -7.5020552937512119e-01  -7.9590587634571608e-01  -8.0549998162659231e-01  -8.4115028743618558e-01  -8.2516469136222181e-01  -8.2156399952281678e-01  -8.4123032447636370e-01  -8.1718347608939201e-01  -8.1068131427201606e-01  -8.5847988530207286e-01  -8.1405206639868144e-01  -8.3018518630983318e-01  -8.5711583168941174e-01  -8.5814089386145509e-01  -8.5350042457315134e-01  -8.3088871159146649e-01  -8.4626165011891319e-01  -7.9794828604882917e-01  -7.7369541405760800e-01  -8.4699133804047433e-01  -7.4987174599596773e-01  -7.8604382114245130e-01  -8.4708870897015476e-01  -8.1935871446236908e-01  -8.3453695503943104e-01  -8.6893755481599344e-01  -8.1290977555804556e-01  -7.7618789830327406e-01  -8.0689074407452199e-01  -7.8834782977742091e-01  -8.5983832544023697e-01  -7.8989831834969360e-01  -8.3843537876311802e-01  -8.3517013773724136e-01  -8.3931269886142168e-01  -8.1297720149352093e-01  -8.1374157409276471e-01  -8.1558564693499158e-01  -8.1022908535441163e-01  -8.0810173614865333e-01  -9.0313020346622330e-01  -8.2038939224068541e-01  -8.6044174905027737e-01  -7.7726638324733976e-01  -8.1014031577500623e-01  -8.0635833586236283e-01  -8.3671355594845986e-01  -8.0214583554963681e-01  -7.9869179533412860e-01  -8.0049583336597996e-01  -8.2662769040687745e-01  -7.8495820877205369e-01  -8.3159795015638260e-01  -8.2989365093762835e-01  -8.5290496375196267e-01  -8.4182058803842896e-01  -8.3808511515635642e-01  -8.3695265691945520e-01  -8.5454127572184901e-01  -8.5664841802599168e-01  -8.9033499438172503e-01  -8.6776955872907036e-01  -8.2443916041235299e-01  -8.0841621907197569e-01  -8.4276880636825546e-01  -7.9225914988679347e-01  -7.9837287631391318e-01  -8.2555445221485990e-01  -8.4892028734505365e-01  -8.3372636856881688e-01  -8.4000164786954390e-01  -8.3487151111594826e-01  -8.3244366994094554e-01  -8.1598496876704918e-01  -8.7174985203366229e-01  -8.4911513866634447e-01  -8.0376155603161670e-01  -8.2229012210417651e-01  -7.8609415820980644e-01  -7.9419075180408150e-01  -8.2401937072075493e-01  -8.4838895910389345e-01  -8.6171643823193200e-01  -8.1109543027842934e-01  -8.3684579929277614e-01  -8.6148294168700656e-01  -8.5325266288259305e-01  -8.2693132960055937e-01  -7.7615354406175074e-01  -8.7511295444176018e-01  -8.4088540395163047e-01  -8.3608157607738376e-01  -8.3361288737521300e-01  -7.8784362540605712e-01  -7.7297889926377183e-01  -7.8073910911388400e-01  -8.6567002595270359e-01  -8.3072718752572006e-01  -8.4993861693558581e-01  -8.6486478848434623e-01  -8.4439548197529846e-01  -8.3606915325561471e-01  -8.0209951236244914e-01  -8.7200645971806623e-01  -7.8139299578480614e-01  -8.6381143937681670e-01  -8.6911830867543072e-01  -8.6826445776462691e-01  -8.5904164928271975e-01  -8.6531011040221095e-01  -8.2354445339283378e-01  -8.1017864530997541e-01  -7.6347424458676216e-01  -8.2540272952837490e-01  -9.2182330757713715e-01  -8.5215909186842687e-01  -8.4816437118819954e-01  -8.4647142621042715e-01  -8.8784944594859116e-01  -8.7134950044695880e-01  -8.2920666108679519e-01  -8.3326674248868926e-01  -8.3532882365864836e-01  -8.5015893248507191e-01  -8.5246434995676679e-01  -8.5414164621478261e-01  -7.7507761367760664e-01  -8.5973349329970639e-01  -8.4628537842752272e-01  -8.2936274003421306e-01  -7.9336114229401300e-01  -8.5735371839530083e-01  -8.3637141491032729e-01  -8.2132806714318041e-01  -8.6294974657145340e-01  -8.3776478027747570e-01  -8.5319845657018101e-01  -8.5170142093725432e-01  -8.4649212718065836e-01  -8.7500434063594057e-01  -7.8148410973209892e-01  -7.4941268534289895e-01  -7.9950916121493942e-01  -8.1371910753023091e-01  -7.9771395222950114e-01  -8.1143549201921750e-01  -8.4360763556282348e-01  -7.7588363164598673e-01  -8.4105305771564542e-01  -8.5150743031900500e-01  -8.5850990627639523e-01  -8.5689643422498984e-01  -7.2565537705654570e-01  -7.7610064677427282e-01  -8.6883863273890705e-01  -8.0161735612698715e-01  -7.9554979504409706e-01  -8.3128589159314981e-01  -7.7954657306055286e-01  -8.6660817011150904e-01  -8.3050802914186228e-01  -8.8195800228578991e-01  -8.8755211268632739e-01  -8.3210594730569798e-01  -8.2732429296461651e-01  -8.7344019690604913e-01  -8.4363483987828491e-01  -8.5695039749907853e-01  -8.7004734378761750e-01  -8.4887115463812890e-01  -8.8455103449567352e-01  -7.9756977715516053e-01  -8.1083944821748999e-01  -8.4502864471360473e-01  -8.8226457142014403e-01  -8.5738817686946645e-01  -7.7907082844747055e-01  -7.8196374639674604e-01  -8.7754772566027039e-01  -8.7896890676670913e-01  -8.4041682058911160e-01  -8.1784146600927665e-01  -7.8590842770542735e-01  -7.9008449806840153e-01  -8.2247501358494979e-01  -7.9200268970742016e-01  -8.3443207679828624e-01  -8.5670713275718136e-01  -8.6202896893098246e-01  -8.2308927309009583e-01  -8.2918021695811783e-01  -8.7166613721431563e-01  -8.1115769287192008e-01  -8.6213010805421120e-01  -8.3221923730810821e-01  -8.5821824641551891e-01  -8.3189792445412136e-01  -8.3537568175068577e-01  -8.0703053906396849e-01  -8.2551669884270384e-01  -8.0505431211880496e-01  -7.8443791555955078e-01  -8.6918304358975096e-01  -7.7678556198243753e-01  -8.2525792790938202e-01  -8.3196931819734898e-01  -8.4086715122614553e-01  -8.1416308634792056e-01  -8.2461971534721246e-01  -8.4272294393934577e-01  -8.0525603307848082e-01  -8.2145275957410158e-01  -8.7124618545949073e-01  -8.2970720933475317e-01  -8.1177924534999679e-01  -8.2164972658136048e-01  -8.6406347425600383e-01  -8.2330856902981953e-01  -8.3997484041069836e-01  -7.8259838359638467e-01  -8.1934451834418964e-01  -8.6525618137320881e-01  -8.6073114586956512e-01  -8.1903214308312688e-01  -8.4560962689396613e-01  -7.8770047617547256e-01  -8.1788248817252940e-01  -8.4843240538373466e-01  -8.2736915200676664e-01  -8.7087528363986066e-01  -8.1212646901060881e-01  -7.7795128315611761e-01  -7.7102080076228385e-01  -8.6240133497590954e-01  -7.8433289042425847e-01  -8.1659417540669987e-01  -8.3868416710229243e-01  -8.0955294165762537e-01  -8.3389969611401538e-01  -8.1504838182768757e-01  -8.1610438272012298e-01  -8.3861632993260971e-01  -8.1429629191936770e-01  -8.2135985587627547e-01  -8.5331661172075668e-01  -8.0531319712412597e-01  -8.0695800801272166e-01  -7.9070773426364682e-01  -7.9877482425936830e-01  -8.0986482409967198e-01  -8.3966561970063869e-01  -8.4091364730988583e-01  -8.3983286480485886e-01  -8.7167373806341886e-01  -8.1782114069697409e-01  -8.3677806986664482e-01  -8.1303859832878744e-01  -8.2160448997494184e-01  -8.2893709602117849e-01  -8.4992624572331632e-01  -9.2036465128471689e-01  -8.7830325688043143e-01  -7.9358085131101419e-01  -8.5134147056776299e-01  -8.6940950837542519e-01  -8.0816651043664811e-01  -8.6671161708694133e-01  -8.4356021025076700e-01  -8.5294430678018507e-01  -8.3897146528060207e-01  -7.9373746404707679e-01  -8.2965349294697321e-01  -8.3116263908429389e-01  -8.3382597338178766e-01  -8.9022691032220458e-01  -7.9151107815038768e-01  -8.6835824854874033e-01  -7.9882792821682369e-01  -7.7627633053223000e-01  -8.1537667992807550e-01  -8.6857589631950693e-01  -8.1069618020607981e-01  -8.1599269137160269e-01  -8.3994525388007879e-01  -8.1862483591218393e-01  -8.6340036383601471e-01  -8.6721377487605933e-01  -8.0147074583331779e-01  -8.0368612988826205e-01  -7.9944995802410201e-01  -8.6932398429517155e-01  -8.6691613456858330e-01  -8.2348307965370526e-01  -8.1922860254117946e-01  -8.5119588905297650e-01  -7.8034119793137613e-01  -7.7840735113583726e-01  -8.8597493170134911e-01  -7.9879798981668815e-01  -8.1279346068218572e-01  -7.9642072362404437e-01  -8.1983913928820007e-01  -8.1656128818050400e-01  -9.4164827418871422e-01  -8.2912500597938332e-01  -7.5244681250521706e-01  -7.9849641773098567e-01  -7.9740474156538643e-01  -7.9667796424305415e-01  -7.7403610241857157e-01  -8.1827581896765811e-01  -8.1569627322687877e-01  -8.1497617315659676e-01  -8.4503931929796361e-01  -8.0461044644697033e-01  -8.4336438145064407e-01  -8.4488005361753404e-01  -8.5565662127572140e-01  -8.3118337338695070e-01  -7.8396032483786759e-01  -8.2830380755581867e-01  -8.5951185998217927e-01  -7.7840910929118012e-01  -7.5217412302825670e-01  -8.4306464388270774e-01  -8.7312166053174312e-01  -8.2333676029570846e-01  -8.0890725874914016e-01  -8.0345273690906061e-01  -8.4333852276296950e-01  -8.5138710576815191e-01  -8.4348748153453379e-01  -7.7656143443928871e-01  -7.6305550179411485e-01  -8.3712303156108658e-01  -8.2917854581141470e-01  -7.9228567868846411e-01  -7.8969197608738539e-01  -8.4012271681662132e-01  -8.0534383100149010e-01  -7.9303579501912935e-01  -7.9956308851595070e-01  -7.9481455109196608e-01  -8.4948784019519052e-01  -8.5463413582305137e-01  -8.5306002209772547e-01  -8.5699498886670833e-01  -8.4634580731320908e-01  -8.4138136030307220e-01  -8.1796988801249260e-01  -8.2314540317547935e-01  -8.4701738108207425e-01  -7.7432673539116958e-01  -8.7093449035992276e-01  -8.2699950229487906e-01  -8.4179509849647260e-01  -8.2724715536470494e-01  -8.5581554617046762e-01  -8.0691297861527655e-01  -8.2334379386789769e-01  -8.2126925548900165e-01  -8.3637142235331663e-01  -8.4982814743729684e-01  -7.8526401864552076e-01  -8.6073111165731453e-01  -8.8099509905235973e-01  -8.2236626614844266e-01  -8.2482917446314252e-01  -7.8192684387381772e-01  -8.4790454906814228e-01  -7.8593168335609709e-01  -8.6120724485870026e-01  -8.3953681400451430e-01  -8.4705385747646733e-01  -8.4365223750357932e-01  -7.9946768709640570e-01  -8.5793733284533380e-01  -8.5862132870542418e-01  -8.3301080884954160e-01  -8.5355250975246721e-01  -8.1946701482478290e-01  -8.1422476627326423e-01  -8.0810068561255965e-01  -7.9367350726739638e-01  -8.4520092551909687e-01  -8.4775011554686663e-01  -8.5163158650233906e-01  -8.5063388591741562e-01  -7.8293576556668965e-01  -8.2840229167395141e-01  -7.6953127469073368e-01  -9.0745418274168088e-01  -9.0469723718780137e-01  -8.9808124906123477e-01  -8.5275606297645745e-01  -7.7708105836685315e-01  -7.9299719353064468e-01  -7.9595397397713008e-01  -8.3864281801447838e-01  -7.8267441672486293e-01  -7.8534198294929858e-01  -7.8204966110960239e-01  -8.4655230612499743e-01  -8.3530757625207142e-01  -7.8699907413982495e-01  -8.6656046684116339e-01  -7.9393187503093432e-01  -8.6023409965490039e-01  -7.7887917274398877e-01  -8.4346145636090608e-01  -8.6325460748137395e-01  -8.6168804002559585e-01  -8.3485019410968908e-01  -8.4608060971323484e-01  -8.4902149859472242e-01  -7.8344968874341636e-01  -8.6267690388635376e-01  -8.1978232479658109e-01  -8.7200513164882998e-01  -8.2853791820435652e-01  -8.5551956311366040e-01  -7.7094277718656989e-01  -8.2842089640570549e-01  -8.4066092067058706e-01  -8.4937265845582355e-01  -8.7854651080221047e-01  -7.7730520846398710e-01  -8.5388886978617173e-01  -8.4910443733832786e-01  -8.3199624722781540e-01  -8.4255903812088373e-01  -8.5416989045382929e-01  -7.9766408419184376e-01  -8.4882333582087011e-01  -8.5102884756683528e-01  -8.4987430629616467e-01  -7.9521003534449453e-01  -7.9638105607732512e-01  -8.2623680195593185e-01  -8.3533803307277232e-01  -8.5047502361747551e-01  -7.6687403040410729e-01  -7.5977446397043258e-01  -7.7109661747889913e-01  -8.6895519218342354e-01  -8.4640710990271839e-01  -7.8557361772346002e-01  -8.3727098687941792e-01  -8.3643804884066775e-01  -8.3402190016871258e-01  -8.4670572485487305e-01  -8.6380252891583920e-01  -8.5035735914657740e-01  -8.3645320737714290e-01  -8.4577300730441485e-01  -7.8377633850909523e-01  -8.7005275984525632e-01  -8.3399378820207226e-01  -8.2610702973843619e-01  -9.0038689691686269e-01  -8.7590015656222509e-01  -8.7786224273931812e-01  -8.1483409413850849e-01  -8.0198467756811720e-01  -8.2524920584732953e-01  -8.2880339474661602e-01  -8.3047126353558953e-01  -8.6868822498220721e-01  -8.3056438361941387e-01  -8.6218479158866290e-01  -8.5858622310677912e-01  -7.891355981026