<?xml version="1.0"?>
<VTKFile type="UnstructuredGrid"  version="0.1"  >
<UnstructuredGrid>
<Piece  NumberOfPoints="1890" NumberOfCells="3574">
<Points>
<DataArray  type="Float64"  NumberOfComponents="3"  format="ascii">1 0 0  0.9977668786231532 0.06679263374512155 0  0.9910774881547801 0.1332869553737788 0  0.9799617050365869 0.1991859851038361 0  0.9644691750543766 0.264195401871286 0  0.9446690916079188 0.3280248578395691 0  0.9206498866764288 0.3903892751634948 0  0.8925188358598812 0.4510101192161018 0  0.8604015792601394 0.5096166425919174 0  0.8244415603417603 0.5659470943305952 0  0.784799385278661 0.6197498889602449 0  0.7416521056479576 0.6707847301392235 0  0.6951924276746423 0.7188236838779293 0  0.6456278515588024 0.7636521965473321 0  0.5931797447293553 0.8050700531275629 0  0.5380823531633727 0.842892271416797 0  0.4805817551866838 0.8769499282066715 0  0.420934762428335 0.9070909137343407 0  0.3594077728375128 0.9331806110416025 0  0.2962755808856342 0.9551024972069124 0  0.2318201502675284 0.9727586637650372 0  0.1663293545831299 0.9860702539900286 0  0.1000956916240984 0.994977815088504 0  0.03341497700767464 0.9994415637302546 0  -0.03341497700767452 0.9994415637302546 0  -0.1000956916240983 0.994977815088504 0  -0.16632935458313 0.9860702539900286 0  -0.2318201502675281 0.9727586637650372 0  -0.2962755808856338 0.9551024972069124 0  -0.3594077728375129 0.9331806110416025 0  -0.4209347624283349 0.9070909137343408 0  -0.4805817551866837 0.8769499282066716 0  -0.5380823531633726 0.8428922714167971 0  -0.5931797447293552 0.805070053127563 0  -0.6456278515588024 0.7636521965473321 0  -0.6951924276746423 0.7188236838779293 0  -0.7416521056479576 0.6707847301392235 0  -0.784799385278661 0.6197498889602449 0  -0.8244415603417601 0.5659470943305954 0  -0.8604015792601392 0.5096166425919177 0  -0.8925188358598811 0.4510101192161021 0  -0.9206498866764287 0.3903892751634951 0  -0.9446690916079189 0.3280248578395689 0  -0.9644691750543765 0.2641954018712862 0  -0.9799617050365867 0.1991859851038363 0  -0.99107748815478 0.133286955373779 0  -0.9977668786231532 0.0667926337451217 0  -1 -3.216245299353273e-16 0  -0.9977668786231532 -0.06679263374512145 0  -0.9910774881547801 -0.1332869553737783 0  -0.9799617050365869 -0.1991859851038361 0  -0.9644691750543766 -0.264195401871286 0  -0.9446690916079188 -0.3280248578395691 0  -0.9206498866764288 -0.3903892751634949 0  -0.8925188358598815 -0.4510101192161015 0  -0.8604015792601394 -0.5096166425919175 0  -0.8244415603417605 -0.5659470943305949 0  -0.7847993852786611 -0.6197498889602446 0  -0.7416521056479575 -0.6707847301392236 0  -0.6951924276746424 -0.7188236838779292 0  -0.6456278515588025 -0.7636521965473319 0  -0.593179744729355 -0.8050700531275631 0  -0.5380823531633728 -0.842892271416797 0  -0.4805817551866835 -0.8769499282066716 0  -0.4209347624283351 -0.9070909137343407 0  -0.3594077728375134 -0.9331806110416024 0  -0.296275580885634 -0.9551024972069124 0  -0.2318201502675288 -0.9727586637650371 0  -0.1663293545831301 -0.9860702539900286 0  -0.1000956916240988 -0.994977815088504 0  -0.03341497700767455 -0.9994415637302546 0  0.03341497700767418 -0.9994415637302546 0  0.1000956916240984 -0.994977815088504 0  0.1663293545831297 -0.9860702539900286 0  0.2318201502675284 -0.9727586637650372 0  0.2962755808856337 -0.9551024972069125 0  0.3594077728375122 -0.9331806110416029 0  0.4209347624283348 -0.9070909137343408 0  0.4805817551866832 -0.8769499282066718 0  0.5380823531633725 -0.8428922714167971 0  0.5931797447293548 -0.8050700531275633 0  0.6456278515588023 -0.7636521965473321 0  0.6951924276746418 -0.7188236838779297 0  0.7416521056479575 -0.6707847301392235 0  0.7847993852786612 -0.6197498889602446 0  0.8244415603417603 -0.5659470943305952 0  0.8604015792601392 -0.5096166425919179 0  0.8925188358598808 -0.4510101192161026 0  0.9206498866764287 -0.3903892751634952 0  0.9446690916079188 -0.328024857839569 0  0.9644691750543765 -0.2641954018712863 0  0.9799617050365869 -0.199185985103836 0  0.99107748815478 -0.1332869553737791 0  0.9977668786231532 -0.06679263374512227 0  0.5766044443118978 0.06427876096865393 0  0.6 0 0  0.5766044443118978 -0.06427876096865397 0  0.517364817766693 -0.09848077530122082 0  0.45 -0.08660254037844384 0  0.4060307379214091 -0.03420201433256687 0  0.4060307379214091 0.03420201433256689 0  0.45 0.08660254037844388 0  0.5173648177666931 0.0984807753012208 0  -0.2965686451888956 -3.216245299353273e-16 0  0.02995799338450739 0.4463820650390996 0  0.02995799338450775 -0.4463820650390995 0  -0.3955719483658615 0.4150379846043291 0  -0.4169105514339966 -0.4032046590493156 0  -0.6262911543602625 0.1406750128378851 0  0.4099697941225568 0.4649562806856727 0  0.4099697941225571 -0.4649562806856725 0  0.05127126517818126 0.08817401780249684 0  -0.1831682142260297 -0.6686721086721615 0  -0.1831682142260294 0.6686721086721619 0  -0.6520464330424147 -0.1814832365373373 0  0.2091634468672813 0.6766366337832459 0  0.1883365569596445 -0.6875396105945327 0  0.2159040325791659 -0.2383848214817743 0  -0.1744543149380852 0.2484563274625736 0  -0.06716122455575962 -0.1748068953293204 0  0.2513036159616241 0.2568747514607447 0  0.6477088057990819 -0.3356515765545967 0  0.6477088057990816 0.3356515765545969 0  -0.6429348001755962 0.3888615828205575 0  -0.4176911395802332 -0.639529979133491 0  -0.6487907438517166 -0.4141725603623674 0  -0.4382859878713386 0.638471665172117 0  -0.1883060146004528 -0.3712832336183189 0  -0.4093410988944064 0.1924263534676403 0  0.7784262897673441 0.1313041761919452 0  0.7692266286696862 -0.1588101168391893 0  -0.3273037620396328 -0.2103878546156154 0  -0.1798454764806241 0.458542771899162 0  0.4017553023960708 -0.6784121172515977 0  -0.7833260349743965 -0.008879310202590557 0  -0.4794205971237819 -0.08072648637784163 0  0.4174224539707952 0.6731117436251652 0  0.01086072875173043 0.7779172259216657 0  0.5993482410529842 0.529941331081667 0  0.5800727149699484 -0.5610028828936883 0  -0.002913066865704084 -0.7863475463243047 0  0.4644692980420977 0.281953550413786 0  0.4644692980420981 -0.281953550413786 0  0.2204900511885566 0.4449044634307799 0  0.2180189937406393 -0.4954600835645215 0  0.2060327886352148 -0.03858259979572255 0  -0.7808481637664745 0.2422213783127347 0  0.06990549121986947 0.2690208389553115 0  -0.1124194025531066 0.00373323440863213 0  -0.2838372182411008 -0.5216724848805774 0  0.03130371177689495 -0.6180840640285581 0  -0.7762218745645899 -0.2989562490519654 0  0.05214597457400483 0.613977754767665 0  -0.4956543915012957 -0.251170934148539 0  -0.5275381827985767 -0.5210032025475994 0  -0.5301696116286927 0.5051064981533095 0  -0.16809888692682 -0.8270183856644552 0  -0.3240121076586466 0.7657967722683376 0  -0.1438288839385778 0.8257307941019953 0  -0.2998557134907758 0.5617360107302967 0  0.1684367173033988 0.8286804545679113 0  -0.6250110225296729 -0.01789111552180164 0  -0.3137113036339798 -0.7609856814941814 0  -0.1170075000122383 -0.518790272865666 0  0.05108989091758273 -0.06990257622780319 0  -0.5427150590508653 0.270931066435428 0  0.1429967624415053 -0.8342737229435346 0  0.2997239097253987 -0.7923562376371267 0  0.2676893696803808 0.1031671400466477 0  0.3261287713905652 -0.3403712992466087 0  0.7950089908879098 0.2858943947941835 0  0.3151824699376609 0.7865115564528017 0  0.3115634426834656 0.5726907027982669 0  0.704039443019545 -0.4753841151972395 0  0.7470219429290336 -0.01290298646666185 0  -0.8321235529347469 -0.1551998530807213 0  0.05709269783870959 -0.2835250962999872 0  -0.2021447182543711 -0.1140175740005167 0  -0.05854661192244001 0.3332686099592011 0  -0.4944752806394075 0.06870205217856792 0  0.6465785626300955 0.1909460270059954 0  0.6150172073263744 -0.1992156468339642 0  -0.08321382237958147 0.5651617303365446 0  -0.6720985235143602 0.5299695767353035 0  0.3081627102340266 -0.1336818188805801 0  0.7954182263431147 -0.306979485853048 0  -0.0801862748968569 0.1421281857867356 0  -0.2704290205461716 0.3511058548763765 0  -0.2733876063765904 0.1428439818287992 0  -0.6630142665634642 -0.5525422555121322 0  0.7250705628492369 0.4580712316052048 0  0.5291222693526491 0.4008241947929737 0  0.543461903937986 -0.42718897847992 0  -0.5796080761878384 0.6375025331582558 0  -0.5686737890628571 -0.6510435601866913 0  0.1471374478051752 -0.382217095965624 0  0.367570301927055 0.1909193223550535 0  0.8716954478736112 0.02914395839180125 0  0.3487459623057126 0.3471068582357988 0  0.1543099947611301 0.1689404724154097 0  -0.07297109638128209 -0.3068109338541753 0  0.2917188534562402 -0.6051822784871949 0  -0.2024804285799746 -0.2430406644266693 0  -0.7781944430042567 0.3778986247265116 0  -0.8494742869240901 0.1173360134018405 0  -0.7720870174071235 -0.4231153023082534 0  -0.449110317890587 -0.7582468751604555 0  0.5545923664877855 0.6602415200552888 0  0.5344562863167422 -0.6858381270857777 0  0.4766344790775262 0.566780609122759 0  -0.445772660902635 0.7601337067632379 0  -0.6616262409933745 0.2552874992358464 0  0.1653545872376546 0.5583524484327292 0  -0.4028773004059317 -0.5214149604035093 0  -0.2990776467406227 -0.6432205051811133 0  0.1120905589734103 -0.1750840530986415 0  0.06398953478431954 0.8829484618446889 0  -0.5251433924072202 0.3874134656159851 0  -0.6099143365137073 -0.2972611803339155 0  -0.04678747567896177 0.6762313351705379 0  -0.533024901227188 -0.4050045909030676 0  0.1246725721343765 0.3745355098341986 0  -0.3000083100373507 -0.4058635916290634 0  -0.06655528087218812 -0.8836517798731542 0  -0.4088769106504622 0.5282941447433156 0  -0.7345489526308654 0.09712579222418664 0  0.1081465349890011 -0.5316255335782825 0  0.8804353520695445 -0.1485109638682795 0  -0.3713419913383989 0.08543731094255294 0  -0.43252237558797 0.3055918258709063 0  0.1125429094389743 0.7322321616258178 0  -0.8927041854393205 -0.02984635711944513 0  -0.06589562952638969 -0.6859291199262957 0  -0.7331201394770802 -0.1069200385835311 0  -0.08867729710384351 -0.414111852980487 0  -0.0447872543388
[...]
<PointData  Scalars="f_28"> 
<DataArray  type="Float64"  Name="f_28"  format="ascii">2.1032710926433169e+00  2.0941913416010167e+00  2.0857974915906481e+00  2.0781526379957760e+00  2.0718127341639136e+00  2.0666558609525678e+00  2.0629140794564536e+00  2.0602881446446903e+00  2.0587538564848868e+00  2.0579997861235810e+00  2.0580065744578033e+00  2.0584758295828642e+00  2.0593071894299122e+00  2.0604468135709157e+00  2.0617963867164106e+00  2.0632305108515139e+00  2.0647800777640390e+00  2.0664293308599349e+00  2.0679984566680893e+00  2.0696059446526434e+00  2.0712297562010509e+00  2.0727550377874286e+00  2.0742922446485506e+00  2.0757868541464828e+00  2.0772295898091930e+00  2.0786818773139482e+00  2.0799847266486093e+00  2.0813504563234777e+00  2.0826359175994211e+00  2.0839384100563683e+00  2.0851612786432141e+00  2.0863658920208255e+00  2.0875333683583701e+00  2.0886796648278678e+00  2.0898025424483229e+00  2.0908851602781748e+00  2.0920092645312325e+00  2.0930730264616941e+00  2.0941520032098131e+00  2.0951669411551537e+00  2.0961834895645293e+00  2.0972116608228801e+00  2.0982234982209054e+00  2.0992360332619042e+00  2.1002545381051116e+00  2.1012652388418225e+00  2.1022322455336058e+00  2.1032399829176356e+00  2.1042609834873356e+00  2.1052448676385556e+00  2.1062547604135249e+00  2.1072801011545601e+00  2.1083421850390729e+00  2.1093485112436179e+00  2.1103629828606949e+00  2.1114629637344771e+00  2.1125395354021594e+00  2.1136027659182481e+00  2.1147172814390656e+00  2.1158355157034885e+00  2.1169777851826010e+00  2.1181495530851162e+00  2.1193303339605678e+00  2.1205408735168425e+00  2.1217834962118975e+00  2.1230520728219013e+00  2.1243448889710956e+00  2.1256555387967961e+00  2.1270161078968766e+00  2.1283929528539853e+00  2.1298105325561498e+00  2.1312395555433321e+00  2.1327302157630097e+00  2.1342181077341968e+00  2.1357886697222264e+00  2.1373004006825918e+00  2.1388409668324475e+00  2.1403841637411265e+00  2.1419136379557151e+00  2.1433773007190058e+00  2.1447315961830178e+00  2.1460250130645622e+00  2.1470923074090216e+00  2.1478990242932592e+00  2.1483341731085699e+00  2.1482489841989882e+00  2.1476142514248120e+00  2.1459986475815089e+00  2.1434732054611780e+00  2.1398006280317921e+00  2.1346658957629736e+00  2.1285155702302232e+00  2.1209149202890245e+00  2.1124039109744674e+00  1.9916623833832678e+00  2.0958147018787674e+00  2.1904551368921847e+00  2.2636829488590595e+00  2.2487607647343246e+00  2.1535786491693467e+00  2.0224051863971764e+00  1.9452520742759092e+00  1.9337834217900431e+00  2.0851563928760104e+00  2.0680786423866717e+00  2.1188773923763073e+00  2.0848258561266819e+00  2.1083093053602817e+00  2.0956017708525350e+00  2.0534219336373662e+00  2.1462806557812577e+00  2.0754579332555001e+00  2.1218998241394877e+00  2.0798374724886415e+00  2.1038540467457798e+00  2.0678984165918513e+00  2.1343518250051252e+00  2.1262596697537246e+00  2.0747493215340467e+00  2.0950346876443451e+00  2.0534854542552501e+00  2.1547784871760558e+00  2.0479429044112156e+00  2.0934962754736874e+00  2.1176213243445257e+00  2.1105712737377953e+00  2.0870773702952938e+00  2.1062966475825746e+00  2.0855066002447633e+00  2.0726228083837852e+00  2.1351107305501489e+00  2.0964407426545346e+00  2.0763950825593822e+00  2.1421881081358856e+00  2.1022958700421257e+00  2.0951164678342820e+00  2.0624822563898650e+00  2.0754347299035190e+00  2.0557761524477316e+00  2.1483507524860905e+00  2.1293564086009189e+00  2.0324060649187383e+00  2.1655627028458633e+00  2.0600407838408890e+00  2.1330513050942375e+00  2.0968824098649876e+00  2.0980885515586083e+00  2.0657227524121149e+00  2.0814576963316256e+00  2.1141600086544394e+00  2.1263877879770052e+00  2.1082625600602367e+00  2.0712436591832017e+00  2.1025446917024171e+00  2.1134972748249465e+00  2.0897927280345656e+00  2.1258693947725402e+00  2.0841352070896484e+00  2.0798179683550164e+00  2.0824593303765599e+00  2.0717267333773286e+00  2.0986624353026189e+00  2.1219325202960313e+00  2.1168393316703460e+00  2.0910561442206270e+00  2.0909677137829168e+00  2.1339014169191866e+00  2.1384056760966437e+00  2.0615476784848838e+00  2.1438743591660043e+00  2.0616697021049668e+00  2.0673798559741070e+00  2.0616055068631787e+00  2.1496197894595213e+00  2.1030117659549115e+00  2.1055978675120794e+00  2.1108156410055856e+00  2.0889931996957269e+00  2.0702323791635577e+00  2.0914426858000628e+00  2.0380812316497265e+00  2.1681435754165852e+00  2.0747693392901563e+00  2.0927840471523269e+00  2.1385699716027560e+00  2.1445585249638319e+00  2.0741404859577379e+00  2.0789020882273888e+00  2.0800300812906527e+00  2.1137297829161836e+00  2.0563277717369770e+00  2.0472446485516684e+00  2.1525490445890085e+00  2.0901550185245377e+00  2.1163931755185050e+00  2.1243049815909667e+00  2.0320476082754881e+00  2.0976438206425052e+00  2.0478918995904687e+00  2.0656548629320475e+00  2.1048256598634079e+00  2.1382192859594733e+00  2.0974781200060311e+00  2.0961734398451628e+00  2.1008686367169673e+00  2.1107210076936656e+00  2.1197158162477123e+00  2.0598999409236347e+00  2.1453838565320589e+00  2.0577000199012896e+00  2.0867449308926869e+00  2.0952835719231686e+00  2.0659046154112262e+00  2.1136233278258292e+00  2.1190806917617646e+00  2.1069884200986242e+00  2.0748265959682914e+00  2.0898430616954644e+00  2.1066729368410910e+00  2.0756992365942026e+00  2.1095340682893959e+00  2.0629464729258258e+00  2.1077976259334803e+00  2.1287374515201791e+00  2.0859901769935139e+00  2.0994507800948541e+00  2.1270477478323113e+00  2.1257399235758858e+00  2.0854373122577274e+00  2.0860781391554561e+00  2.0719065531261047e+00  2.1036090637498592e+00  2.1253469164679855e+00  2.1035299844091959e+00  2.1115126751105868e+00  2.0774780577505458e+00  2.1565489174465182e+00  2.1314782441282887e+00  2.1315698625582171e+00  2.1438821018901768e+00  2.0775199466917003e+00  2.1426300994986454e+00  2.1431030468757060e+00  2.0638792367971233e+00  2.0892551274896340e+00  2.0801701725244461e+00  2.0810684412393252e+00  2.0630303976071884e+00  2.0822581024375673e+00  2.1024978091759370e+00  2.0903104716837149e+00  2.0805586989488098e+00  2.0784965683016976e+00  2.0723270370791784e+00  2.0743615108163356e+00  2.1503046083685260e+00  2.0650339310004755e+00  2.0911860192653058e+00  2.0573546990125386e+00  2.0830017236891254e+00  2.0141640353539145e+00  2.0522147902587813e+00  2.1150315706491836e+00  2.0819509634101947e+00  2.0969991759767117e+00  2.0895572419604682e+00  2.0996529491244535e+00  2.1485242057165332e+00  2.1015655548059491e+00  2.0703265972134934e+00  2.1939967245421008e+00  2.1481201120715401e+00  2.1235899540986614e+00  2.1332656715446676e+00  2.1397910982535864e+00  2.0763845566066754e+00  2.1363956957452470e+00  2.0715137911914505e+00  2.0604308793621446e+00  2.1473955389594286e+00  2.1073965739247109e+00  2.0368727669281079e+00  2.1600732121458659e+00  2.1535545420988078e+00  2.0552303155065563e+00  2.0552870307262676e+00  2.1173291254826156e+00  2.0816452221358723e+00  2.0945681054807563e+00  2.0647335973885679e+00  2.0455774937988016e+00  2.1380161113496281e+00  2.0995723360611183e+00  2.0978801328369583e+00  2.1472246616844628e+00  2.0876909665584424e+00  2.0779015745610683e+00  2.1334941499998474e+00  2.1060129762347146e+00  2.0611991778592276e+00  2.0668040711589182e+00  2.0886418280699557e+00  2.1450337370864334e+00  2.1216599490653802e+00  2.1127247084460365e+00  2.0557919906096633e+00  2.1368662473206732e+00  2.0698041489425498e+00  2.0853650660556911e+00  2.1014335825387360e+00  2.1221552945150752e+00  2.0786349302382612e+00  2.1180684457159353e+00  2.1121951299615138e+00  2.0586448268113218e+00  2.0576707365603970e+00  2.0702178860114588e+00  2.1251309088218155e+00  2.1233011557193393e+00  2.0976020350336051e+00  2.0531275991949602e+00  2.1121147513614815e+00  2.0839020698179680e+00  2.0124447749109216e+00  2.1094122571660856e+00  2.1758673435214875e+00  2.1305643053842638e+00  2.1219749869127482e+00  2.0851913944720639e+00  2.1022240361632361e+00  2.1058930030402454e+00  2.0853342284075507e+00  2.1088742899029707e+00  2.1152843987674710e+00  2.0681939760428505e+00  2.1120316079967782e+00  2.0962498837299934e+00  2.0709921004214902e+00  2.0691824698677159e+00  2.0735361699058159e+00  2.0991600204852960e+00  2.0823335378608911e+00  2.1283524719461990e+00  2.1521040819345902e+00  2.0836112814411214e+00  2.1768354015968066e+00  2.1395879796395709e+00  2.0793190808676822e+00  2.1071047092096058e+00  2.0917335359460303e+00  2.0583665464203538e+00  2.1162701828341013e+00  2.1495498590757660e+00  2.1200655301207263e+00  2.1383345746440381e+00  2.0681827232526238e+00  2.1359033887512004e+00  2.0882551056092487e+00  2.0915342436859388e+00  2.0878803969240711e+00  2.1130178626221179e+00  2.1125147806514581e+00  2.1112425934776415e+00  2.1159678482185900e+00  2.1179069577999901e+00  2.0260234456797739e+00  2.1057080257915333e+00  2.0661558867634331e+00  2.1483043437179625e+00  2.1164500938325799e+00  2.1197721084813730e+00  2.0924301567523931e+00  2.1262843903947086e+00  2.1271013609028295e+00  2.1253260219248524e+00  2.1001326872092010e+00  2.1407353291777942e+00  2.0962700145080060e+00  2.0972839912222554e+00  2.0737197150306104e+00  2.0850884155943374e+00  2.0925406723174396e+00  2.0928875585557090e+00  2.0719614446546890e+00  2.0701165094290888e+00  2.0381165465143809e+00  2.0600894894445703e+00  2.1017080634957632e+00  2.1175126947278096e+00  2.0835999484596028e+00  2.1334454474688993e+00  2.1275660260396121e+00  2.1014226405722267e+00  2.0776895449425647e+00  2.0935342349360022e+00  2.0881073568568569e+00  2.0921334467951778e+00  2.0939238255347088e+00  2.1113575974782424e+00  2.0578454745546750e+00  2.0806602541702723e+00  2.1241321657426302e+00  2.1039966112544581e+00  2.1396209347426769e+00  2.1316777840970937e+00  2.1022032862132312e+00  2.0795055479369857e+00  2.0649792311930373e+00  2.1169197225770873e+00  2.0934264187040577e+00  2.0686488740635198e+00  2.0776236219890687e+00  2.0994437614216364e+00  2.1495012970716667e+00  2.0520830191214978e+00  2.0878592803772484e+00  2.0924433314309114e+00  2.0940703877857967e+00  2.1399922202665631e+00  2.1538172352138161e+00  2.1460886603224782e+00  2.0610124654695383e+00  2.0991208248761501e+00  2.0764989580254865e+00  2.0618576785276050e+00  2.0827921003606882e+00  2.0923230840279339e+00  2.1246057688508757e+00  2.0556482645955882e+00  2.1442524232097560e+00  2.0637562875976059e+00  2.0576547017102933e+00  2.0585118468518702e+00  2.0677481015795771e+00  2.0617609904601770e+00  2.1046527786616327e+00  2.1183725023917765e+00  2.1625981008782564e+00  2.1043647610930516e+00  2.0069147838671006e+00  2.0777491449155794e+00  2.0820078793284731e+00  2.0829761940620957e+00  2.0397690462384115e+00  2.0555428359318491e+00  2.0987321143058240e+00  2.0929822394803677e+00  2.0910967378356058e+00  2.0771352038422135e+00  2.0756617947921177e+00  2.0734464980658935e+00  2.1512463448446151e+00  2.0694823289620472e+00  2.0808893948747986e+00  2.0968414697288651e+00  2.1324496279644016e+00  2.0725430504184974e+00  2.0899110755895789e+00  2.1058453731560594e+00  2.0673579140138338e+00  2.0886463292808015e+00  2.0762872456456223e+00  2.0770922533189364e+00  2.0818046245044761e+00  2.0521781977578515e+00  2.1440957530475453e+00  2.1773155869314449e+00  2.1291622272745294e+00  2.1153558785081885e+00  2.1307507306756768e+00  2.1146725208364829e+00  2.0866551976535179e+00  2.1499586853234063e+00  2.0856102279291231e+00  2.0750853684274024e+00  2.0680503555319061e+00  2.0723000533276230e+00  2.2001569883083385e+00  2.1501101820874777e+00  2.0579829669978893e+00  2.1242870133757310e+00  2.1301954604477840e+00  2.0951254591609234e+00  2.1460183799952115e+00  2.0602606278867959e+00  2.0957148268550454e+00  2.0454847545375849e+00  2.0402409387883536e+00  2.0945555818657788e+00  2.1020148494972122e+00  2.0535748914187040e+00  2.0839448464545813e+00  2.0738874625744317e+00  2.0576115115623606e+00  2.0820130031530244e+00  2.0443417983560157e+00  2.1301102298744246e+00  2.1180066448807864e+00  2.0836986196348510e+00  2.0469561964626011e+00  2.0692452706812987e+00  2.1466083836756757e+00  2.1437013805231455e+00  2.0504513688492487e+00  2.0498292642020468e+00  2.0871768004923008e+00  2.1088137548442001e+00  2.1400727471386389e+00  2.1361478107600744e+00  2.1065510053587704e+00  2.1339632258763523e+00  2.0919433165563532e+00  2.0738136366797395e+00  2.0651573188304648e+00  2.1031342020452519e+00  2.0975276003974082e+00  2.0575821541183528e+00  2.1162015497098290e+00  2.0678151385336432e+00  2.0980965660611961e+00  2.0722090306416838e+00  2.0957612690538547e+00  2.0938812632671269e+00  2.1188768111350882e+00  2.1006504489159772e+00  2.1212485649917747e+00  2.1421477412484249e+00  2.0596961076408258e+00  2.1487818446983975e+00  2.1011282132090487e+00  2.0974109347151253e+00  2.0887773376457477e+00  2.1118559526870508e+00  2.1019857894459659e+00  2.0874994160461817e+00  2.1207039491208244e+00  2.1046944535906453e+00  2.0557944052734225e+00  2.0988939802802746e+00  2.1141938157724764e+00  2.1044588912792777e+00  2.0625872844502200e+00  2.1028222003452779e+00  2.0889680328783711e+00  2.1433027623414351e+00  2.1067309935276430e+00  2.0627522353970158e+00  2.0666487340146085e+00  2.1071465643270861e+00  2.0807719574019767e+00  2.1379445126133985e+00  2.1104716339165521e+00  2.0779822335643106e+00  2.0988072622599478e+00  2.0587001089598109e+00  2.1143534979444176e+00  2.1475966047913815e+00  2.1549581034305825e+00  2.0643053767662662e+00  2.1412751730178083e+00  2.1095197344498660e+00  2.0876206803886950e+00  2.1163869605255980e+00  2.0925597167596148e+00  2.1109687187958266e+00  2.1099382751635130e+00  2.0889556878465703e+00  2.1142343799256591e+00  2.1054293909494874e+00  2.0731924291620039e+00  2.1205680155035940e+00  2.1190871457450196e+00  2.1349717241161468e+00  2.1281126645566912e+00  2.1169266318540663e+00  2.0867830928443678e+00  2.0854852979861263e+00  2.0864824737903902e+00  2.0556415403380841e+00  2.1086507811045956e+00  2.0897042083371300e+00  2.1162107315788421e+00  2.1081016888495396e+00  2.0973506305284539e+00  2.0768963377204472e+00  2.0083052049633090e+00  2.0492816459130236e+00  2.1343646879823495e+00  2.0751105236288225e+00  2.0574275672945470e+00  2.1193560261009825e+00  2.0628870787451752e+00  2.0828892298665513e+00  2.0735286697921151e+00  2.0879675883790774e+00  2.1319784908671107e+00  2.0968698272645958e+00  2.0957601746216579e+00  2.0932245066068620e+00  2.0380611420477859e+00  2.1352251587328461e+00  2.0585192913319532e+00  2.1272951554541839e+00  2.1493772977759606e+00  2.1107753234269993e+00  2.0581675662152579e+00  2.1157739177666759e+00  2.1110886220482934e+00  2.0884019621896734e+00  2.1077064314939356e+00  2.0657124336731667e+00  2.0598269278323036e+00  2.1252100050209166e+00  2.1228937732054440e+00  2.1295343413996153e+00  2.0574714714805200e+00  2.0597882641658498e+00  2.1050928384116565e+00  2.1089109484472592e+00  2.0753587527951534e+00  2.1456361651687557e+00  2.1471711850284287e+00  2.0422311196363769e+00  2.1287048225267724e+00  2.1141587274758069e+00  2.1306498401269058e+00  2.1078891091829512e+00  2.1110760840128320e+00  1.9868008069860033e+00  2.0977647849867593e+00  2.1740971604733859e+00  2.1273408890434946e+00  2.1283629872181264e+00  2.1291776589354878e+00  2.1517342881593766e+00  2.1088364031363529e+00  2.1107789857878259e+00  2.1116027232178460e+00  2.0817271206824435e+00  2.1231009742228752e+00  2.0847124642495234e+00  2.0816160521768721e+00  2.0714692493135591e+00  2.0951019275341416e+00  2.1438250995544905e+00  2.1008925957456306e+00  2.0710884434331382e+00  2.1473943015676462e+00  2.1752128373925048e+00  2.0841724686162926e+00  2.0564990765163138e+00  2.1039616204724441e+00  2.1185848580800286e+00  2.1223970083937815e+00  2.0862886846413824e+00  2.0781172675187998e+00  2.0828680593534044e+00  2.1506274333174811e+00  2.1636175737662748e+00  2.0898205938031680e+00  2.1007357966495150e+00  2.1350031786213846e+00  2.1362421210984062e+00  2.0866858071206829e+00  2.1208274056252781e+00  2.1327206205139508e+00  2.1263309516392703e+00  2.1311930625036419e+00  2.0801811243981283e+00  2.0720522751653712e+00  2.0737197717461937e+00  2.0699650891282770e+00  2.0828069685743298e+00  2.0859884416717009e+00  2.1080883565252382e+00  2.1030851947668441e+00  2.0804787246382439e+00  2.1515511513883365e+00  2.0586817996472146e+00  2.0992666245198217e+00  2.0845396939253971e+00  2.1013555814383338e+00  2.0706989024091285e+00  2.1190876754901988e+00  2.1033850202639019e+00  2.1050677057591489e+00  2.0936544436012778e+00  2.0784949335123639e+00  2.1411119584548199e+00  2.0660197112263932e+00  2.0464787350626428e+00  2.1054771210544492e+00  2.1030459375382065e+00  2.1442043724967905e+00  2.0785822971721144e+00  2.1398870771374416e+00  2.0672544250332070e+00  2.0908858242515675e+00  2.0827374944612105e+00  2.0829210351276086e+00  2.1263250213143201e+00  2.0706110152958357e+00  2.0690143419297526e+00  2.0973687941413370e+00  2.0737212731905585e+00  2.1095191411571927e+00  2.1138525149931540e+00  2.1182246053604517e+00  2.1325139602485104e+00  2.0812648431977467e+00  2.0826567082561702e+00  2.0787934203041498e+00  2.0802119525467839e+00  2.1426535617104516e+00  2.0996521910828063e+00  2.1564851146286297e+00  2.0206919987431529e+00  2.0233540105208125e+00  2.0298207377701636e+00  2.0778059962651327e+00  2.1485331644996548e+00  2.1328988060603296e+00  2.1301111243482764e+00  2.0877160531044043e+00  2.1432300342973543e+00  2.1408010500072963e+00  2.1442456851055418e+00  2.0801976353496929e+00  2.0912461492431991e+00  2.1394985440962331e+00  2.0620802305490571e+00  2.1325335001975736e+00  2.0702211711492611e+00  2.1468026643041171e+00  2.0835134927474059e+00  2.0634557274242020e+00  2.0649197264477928e+00  2.0919786290658062e+00  2.0815991219211987e+00  2.0794745836267965e+00  2.1422298304789327e+00  2.0641481454383461e+00  2.1063281240788836e+00  2.0564234575466322e+00  2.0976497778059775e+00  2.0726552546468486e+00  2.1563592900484796e+00  2.1009695390037781e+00  2.0894572642997149e+00  2.0773639949651748e+00  2.0506754347138036e+00  2.1482396061052231e+00  2.0750286603775385e+00  2.0799315758345762e+00  2.0964275824026366e+00  2.0840366525193530e+00  2.0743966887424903e+00  2.1288035194565338e+00  2.0785226557722956e+00  2.0766946022195301e+00  2.0766818321291156e+00  2.1306205687125299e+00  2.1304461601242828e+00  2.1006690128131624e+00  2.0909270743644432e+00  2.0775574420078562e+00  2.1594437818247250e+00  2.1664135197193044e+00  2.1550907223114160e+00  2.0578016363858556e+00  2.0844236105306484e+00  2.1415959289864639e+00  2.0904989513930992e+00  2.0916191591865467e+00  2.0935279195967955e+00  2.0799027892956277e+00  2.0633280502438356e+00  2.0761182245651306e+00  2.0923405545675751e+00  2.0806437498879085e+00  2.1418805903326352e+00  2.0567588721060845e+00  2.0940925925768066e+00  2.1000537093046967e+00  2.0279519790459943e+00  2.0525910084122763e+00  2.0494206795712024e+00  2.1141772439885358e+00  2.1251619938196145e+00  2.1018576354417435e+00  2.0986559377734326e+00  2.0974644430644509e+00  2.0605720272472414e+00  2.0995825790532399e+00  2.0681182563090101e+00  2.0721144984072275e+00  2.1365229598125950e+00  2.1036485116320374e+00  2.0908460576140944e+00  2.0913835915894623e+00  2.0986670912938434e+00  2.0892436149672005e+00  2.1249879248912191e+00  2.0752938902103701e+00  2.0777548247335718e+00  2.0812706680264621e+00  2.0786654758717233e+00  2.1376259825243187e+00  2.1350002007248854e+00  2.1484528435443346e+00  2.0818248402079598e+00  2.0838098646121810e+00  2.1081231511100809e+00  2.1155652376563001e+00  2.0690928342781465e+00  2.1056064631604459e+00  2.0937641309112540e+00  2.0939267225176379e+00  2.0950605624690937e+00  2.0495274041956351e+00  2.0539049390731923e+00  2.1070315936361599e+00  2.1099486714356837e+00  2.1126761709175916e+00  2.1456525543554767e+00  2.0641562677702257e+00  2.0665147012828458e+00  2.0785025104619379e+00  2.1516038616326991e+00  2.0619189813254373e