<?xml version="1.0"?>
<VTKFile type="UnstructuredGrid"  version="0.1"  >
<UnstructuredGrid>
<Piece  NumberOfPoints="1890" NumberOfCells="3574">
<Points>
<DataArray  type="Float64"  NumberOfComponents="3"  format="ascii">1 0 0  0.9977668786231532 0.06679263374512155 0  0.9910774881547801 0.1332869553737788 0  0.9799617050365869 0.1991859851038361 0  0.9644691750543766 0.264195401871286 0  0.9446690916079188 0.3280248578395691 0  0.9206498866764288 0.3903892751634948 0  0.8925188358598812 0.4510101192161018 0  0.8604015792601394 0.5096166425919174 0  0.8244415603417603 0.5659470943305952 0  0.784799385278661 0.6197498889602449 0  0.7416521056479576 0.6707847301392235 0  0.6951924276746423 0.7188236838779293 0  0.6456278515588024 0.7636521965473321 0  0.5931797447293553 0.8050700531275629 0  0.5380823531633727 0.842892271416797 0  0.4805817551866838 0.8769499282066715 0  0.420934762428335 0.9070909137343407 0  0.3594077728375128 0.9331806110416025 0  0.2962755808856342 0.9551024972069124 0  0.2318201502675284 0.9727586637650372 0  0.1663293545831299 0.9860702539900286 0  0.1000956916240984 0.994977815088504 0  0.03341497700767464 0.9994415637302546 0  -0.03341497700767452 0.9994415637302546 0  -0.1000956916240983 0.994977815088504 0  -0.16632935458313 0.9860702539900286 0  -0.2318201502675281 0.9727586637650372 0  -0.2962755808856338 0.9551024972069124 0  -0.3594077728375129 0.9331806110416025 0  -0.4209347624283349 0.9070909137343408 0  -0.4805817551866837 0.8769499282066716 0  -0.5380823531633726 0.8428922714167971 0  -0.5931797447293552 0.805070053127563 0  -0.6456278515588024 0.7636521965473321 0  -0.6951924276746423 0.7188236838779293 0  -0.7416521056479576 0.6707847301392235 0  -0.784799385278661 0.6197498889602449 0  -0.8244415603417601 0.5659470943305954 0  -0.8604015792601392 0.5096166425919177 0  -0.8925188358598811 0.4510101192161021 0  -0.9206498866764287 0.3903892751634951 0  -0.9446690916079189 0.3280248578395689 0  -0.9644691750543765 0.2641954018712862 0  -0.9799617050365867 0.1991859851038363 0  -0.99107748815478 0.133286955373779 0  -0.9977668786231532 0.0667926337451217 0  -1 -3.216245299353273e-16 0  -0.9977668786231532 -0.06679263374512145 0  -0.9910774881547801 -0.1332869553737783 0  -0.9799617050365869 -0.1991859851038361 0  -0.9644691750543766 -0.264195401871286 0  -0.9446690916079188 -0.3280248578395691 0  -0.9206498866764288 -0.3903892751634949 0  -0.8925188358598815 -0.4510101192161015 0  -0.8604015792601394 -0.5096166425919175 0  -0.8244415603417605 -0.5659470943305949 0  -0.7847993852786611 -0.6197498889602446 0  -0.7416521056479575 -0.6707847301392236 0  -0.6951924276746424 -0.7188236838779292 0  -0.6456278515588025 -0.7636521965473319 0  -0.593179744729355 -0.8050700531275631 0  -0.5380823531633728 -0.842892271416797 0  -0.4805817551866835 -0.8769499282066716 0  -0.4209347624283351 -0.9070909137343407 0  -0.3594077728375134 -0.9331806110416024 0  -0.296275580885634 -0.9551024972069124 0  -0.2318201502675288 -0.9727586637650371 0  -0.1663293545831301 -0.9860702539900286 0  -0.1000956916240988 -0.994977815088504 0  -0.03341497700767455 -0.9994415637302546 0  0.03341497700767418 -0.9994415637302546 0  0.1000956916240984 -0.994977815088504 0  0.1663293545831297 -0.9860702539900286 0  0.2318201502675284 -0.9727586637650372 0  0.2962755808856337 -0.9551024972069125 0  0.3594077728375122 -0.9331806110416029 0  0.4209347624283348 -0.9070909137343408 0  0.4805817551866832 -0.8769499282066718 0  0.5380823531633725 -0.8428922714167971 0  0.5931797447293548 -0.8050700531275633 0  0.6456278515588023 -0.7636521965473321 0  0.6951924276746418 -0.7188236838779297 0  0.7416521056479575 -0.6707847301392235 0  0.7847993852786612 -0.6197498889602446 0  0.8244415603417603 -0.5659470943305952 0  0.8604015792601392 -0.5096166425919179 0  0.8925188358598808 -0.4510101192161026 0  0.9206498866764287 -0.3903892751634952 0  0.9446690916079188 -0.328024857839569 0  0.9644691750543765 -0.2641954018712863 0  0.9799617050365869 -0.199185985103836 0  0.99107748815478 -0.1332869553737791 0  0.9977668786231532 -0.06679263374512227 0  0.5766044443118978 0.06427876096865393 0  0.6 0 0  0.5766044443118978 -0.06427876096865397 0  0.517364817766693 -0.09848077530122082 0  0.45 -0.08660254037844384 0  0.4060307379214091 -0.03420201433256687 0  0.4060307379214091 0.03420201433256689 0  0.45 0.08660254037844388 0  0.5173648177666931 0.0984807753012208 0  -0.2965686451888956 -3.216245299353273e-16 0  0.02995799338450739 0.4463820650390996 0  0.02995799338450775 -0.4463820650390995 0  -0.3955719483658615 0.4150379846043291 0  -0.4169105514339966 -0.4032046590493156 0  -0.6262911543602625 0.1406750128378851 0  0.4099697941225568 0.4649562806856727 0  0.4099697941225571 -0.4649562806856725 0  0.05127126517818126 0.08817401780249684 0  -0.1831682142260297 -0.6686721086721615 0  -0.1831682142260294 0.6686721086721619 0  -0.6520464330424147 -0.1814832365373373 0  0.2091634468672813 0.6766366337832459 0  0.1883365569596445 -0.6875396105945327 0  0.2159040325791659 -0.2383848214817743 0  -0.1744543149380852 0.2484563274625736 0  -0.06716122455575962 -0.1748068953293204 0  0.2513036159616241 0.2568747514607447 0  0.6477088057990819 -0.3356515765545967 0  0.6477088057990816 0.3356515765545969 0  -0.6429348001755962 0.3888615828205575 0  -0.4176911395802332 -0.639529979133491 0  -0.6487907438517166 -0.4141725603623674 0  -0.4382859878713386 0.638471665172117 0  -0.1883060146004528 -0.3712832336183189 0  -0.4093410988944064 0.1924263534676403 0  0.7784262897673441 0.1313041761919452 0  0.7692266286696862 -0.1588101168391893 0  -0.3273037620396328 -0.2103878546156154 0  -0.1798454764806241 0.458542771899162 0  0.4017553023960708 -0.6784121172515977 0  -0.7833260349743965 -0.008879310202590557 0  -0.4794205971237819 -0.08072648637784163 0  0.4174224539707952 0.6731117436251652 0  0.01086072875173043 0.7779172259216657 0  0.5993482410529842 0.529941331081667 0  0.5800727149699484 -0.5610028828936883 0  -0.002913066865704084 -0.7863475463243047 0  0.4644692980420977 0.281953550413786 0  0.4644692980420981 -0.281953550413786 0  0.2204900511885566 0.4449044634307799 0  0.2180189937406393 -0.4954600835645215 0  0.2060327886352148 -0.03858259979572255 0  -0.7808481637664745 0.2422213783127347 0  0.06990549121986947 0.2690208389553115 0  -0.1124194025531066 0.00373323440863213 0  -0.2838372182411008 -0.5216724848805774 0  0.03130371177689495 -0.6180840640285581 0  -0.7762218745645899 -0.2989562490519654 0  0.05214597457400483 0.613977754767665 0  -0.4956543915012957 -0.251170934148539 0  -0.5275381827985767 -0.5210032025475994 0  -0.5301696116286927 0.5051064981533095 0  -0.16809888692682 -0.8270183856644552 0  -0.3240121076586466 0.7657967722683376 0  -0.1438288839385778 0.8257307941019953 0  -0.2998557134907758 0.5617360107302967 0  0.1684367173033988 0.8286804545679113 0  -0.6250110225296729 -0.01789111552180164 0  -0.3137113036339798 -0.7609856814941814 0  -0.1170075000122383 -0.518790272865666 0  0.05108989091758273 -0.06990257622780319 0  -0.5427150590508653 0.270931066435428 0  0.1429967624415053 -0.8342737229435346 0  0.2997239097253987 -0.7923562376371267 0  0.2676893696803808 0.1031671400466477 0  0.3261287713905652 -0.3403712992466087 0  0.7950089908879098 0.2858943947941835 0  0.3151824699376609 0.7865115564528017 0  0.3115634426834656 0.5726907027982669 0  0.704039443019545 -0.4753841151972395 0  0.7470219429290336 -0.01290298646666185 0  -0.8321235529347469 -0.1551998530807213 0  0.05709269783870959 -0.2835250962999872 0  -0.2021447182543711 -0.1140175740005167 0  -0.05854661192244001 0.3332686099592011 0  -0.4944752806394075 0.06870205217856792 0  0.6465785626300955 0.1909460270059954 0  0.6150172073263744 -0.1992156468339642 0  -0.08321382237958147 0.5651617303365446 0  -0.6720985235143602 0.5299695767353035 0  0.3081627102340266 -0.1336818188805801 0  0.7954182263431147 -0.306979485853048 0  -0.0801862748968569 0.1421281857867356 0  -0.2704290205461716 0.3511058548763765 0  -0.2733876063765904 0.1428439818287992 0  -0.6630142665634642 -0.5525422555121322 0  0.7250705628492369 0.4580712316052048 0  0.5291222693526491 0.4008241947929737 0  0.543461903937986 -0.42718897847992 0  -0.5796080761878384 0.6375025331582558 0  -0.5686737890628571 -0.6510435601866913 0  0.1471374478051752 -0.382217095965624 0  0.367570301927055 0.1909193223550535 0  0.8716954478736112 0.02914395839180125 0  0.3487459623057126 0.3471068582357988 0  0.1543099947611301 0.1689404724154097 0  -0.07297109638128209 -0.3068109338541753 0  0.2917188534562402 -0.6051822784871949 0  -0.2024804285799746 -0.2430406644266693 0  -0.7781944430042567 0.3778986247265116 0  -0.8494742869240901 0.1173360134018405 0  -0.7720870174071235 -0.4231153023082534 0  -0.449110317890587 -0.7582468751604555 0  0.5545923664877855 0.6602415200552888 0  0.5344562863167422 -0.6858381270857777 0  0.4766344790775262 0.566780609122759 0  -0.445772660902635 0.7601337067632379 0  -0.6616262409933745 0.2552874992358464 0  0.1653545872376546 0.5583524484327292 0  -0.4028773004059317 -0.5214149604035093 0  -0.2990776467406227 -0.6432205051811133 0  0.1120905589734103 -0.1750840530986415 0  0.06398953478431954 0.8829484618446889 0  -0.5251433924072202 0.3874134656159851 0  -0.6099143365137073 -0.2972611803339155 0  -0.04678747567896177 0.6762313351705379 0  -0.533024901227188 -0.4050045909030676 0  0.1246725721343765 0.3745355098341986 0  -0.3000083100373507 -0.4058635916290634 0  -0.06655528087218812 -0.8836517798731542 0  -0.4088769106504622 0.5282941447433156 0  -0.7345489526308654 0.09712579222418664 0  0.1081465349890011 -0.5316255335782825 0  0.8804353520695445 -0.1485109638682795 0  -0.3713419913383989 0.08543731094255294 0  -0.43252237558797 0.3055918258709063 0  0.1125429094389743 0.7322321616258178 0  -0.8927041854393205 -0.02984635711944513 0  -0.06589562952638969 -0.6859291199262957 0  -0.7331201394770802 -0.1069200385835311 0  -0.08867729710384351 -0.414111852980487 0  -0.0447872543388
[...]
<PointData  Scalars="f_28"> 
<DataArray  type="Float64"  Name="f_28"  format="ascii">1.9331953745217865e+00  1.9245536027403123e+00  1.9165496163640241e+00  1.9092278145785604e+00  1.9031949930173000e+00  1.8982862933396218e+00  1.8946690220614963e+00  1.8921530850418609e+00  1.8906764221895667e+00  1.8899375408146581e+00  1.8899195974826077e+00  1.8903449560841799e+00  1.8911197715045167e+00  1.8921917335334220e+00  1.8934522945641543e+00  1.8947979310942888e+00  1.8962605100480274e+00  1.8978254778008243e+00  1.8993107715843771e+00  1.9008316228815763e+00  1.9023801096043111e+00  1.9038273964252233e+00  1.9052917254863464e+00  1.9067263965359516e+00  1.9080956388855661e+00  1.9094874429631923e+00  1.9107341794702681e+00  1.9120391373491574e+00  1.9132746615336587e+00  1.9145254253228177e+00  1.9157010872374047e+00  1.9168579274312594e+00  1.9179794690721492e+00  1.9190787004571581e+00  1.9201591789553072e+00  1.9211982129396861e+00  1.9222814468486791e+00  1.9233076358071390e+00  1.9243425553482618e+00  1.9253180842874902e+00  1.9262948365141517e+00  1.9272783817418651e+00  1.9282554056470569e+00  1.9292206323229866e+00  1.9302016216686952e+00  1.9311735369123042e+00  1.9321001559430637e+00  1.9330644734329059e+00  1.9340386896897606e+00  1.9349819066161587e+00  1.9359460645036197e+00  1.9369251823573552e+00  1.9379445913008622e+00  1.9389041309906212e+00  1.9398701832636769e+00  1.9409217112355270e+00  1.9419519049093821e+00  1.9429679273059024e+00  1.9440247993207267e+00  1.9450940472267861e+00  1.9461811100805746e+00  1.9472961937517732e+00  1.9484199658901771e+00  1.9495795740337867e+00  1.9507596377537042e+00  1.9519715829301272e+00  1.9532021351811790e+00  1.9544549393093515e+00  1.9557567182835904e+00  1.9570723366523024e+00  1.9584251444709766e+00  1.9597888422395171e+00  1.9612232421025604e+00  1.9626429665619642e+00  1.9641505832570323e+00  1.9656099388740271e+00  1.9670838809151321e+00  1.9685721869881383e+00  1.9700380742783026e+00  1.9714452836204770e+00  1.9727509814348292e+00  1.9740028832765077e+00  1.9750288678007122e+00  1.9758101897122013e+00  1.9762380321056709e+00  1.9761500945234103e+00  1.9755571426009173e+00  1.9740043286617139e+00  1.9715779577946937e+00  1.9680764896150651e+00  1.9631378871252265e+00  1.9573012110307928e+00  1.9500128144583455e+00  1.9419637804577914e+00  1.8312641525948388e+00  1.9344899071444650e+00  2.0229668806468597e+00  2.0884490104138349e+00  2.0753459291271250e+00  1.9891514488365531e+00  1.8661019245449395e+00  1.7840699299781926e+00  1.7726936302828471e+00  1.9244886889438617e+00  1.9045745752804848e+00  1.9532105209085509e+00  1.9187185767715309e+00  1.9410935811900920e+00  1.9279792812033414e+00  1.8873454259205651e+00  1.9762240598932674e+00  1.9162920159884804e+00  1.9522655376562268e+00  1.9120032523044790e+00  1.9353713466091180e+00  1.9003188161596054e+00  1.9638561932079872e+00  1.9614663787785018e+00  1.9141037514486032e+00  1.9349274693802916e+00  1.8910340305074562e+00  1.9834746635903211e+00  1.8812160467478982e+00  1.9245715526297835e+00  1.9475040165573352e+00  1.9407597292942185e+00  1.9181834059431280e+00  1.9421817701834236e+00  1.9218228147693810e+00  1.9047920429453593e+00  1.9646763160634917e+00  1.9335250827183716e+00  1.9120071514207122e+00  1.9707615774756631e+00  1.9327443049862549e+00  1.9303726251296094e+00  1.8944941280626004e+00  1.9069428763404115e+00  1.8881140788932762e+00  1.9766127084857383e+00  1.9584932221322873e+00  1.8677117383281159e+00  1.9951660459180915e+00  1.8956172608952802e+00  1.9648390634165185e+00  1.9349091364893636e+00  1.9284846640253095e+00  1.9049962977314610e+00  1.9228517542225418e+00  1.9463638159572172e+00  1.9574689479852043e+00  1.9381527374087655e+00  1.9047176488491646e+00  1.9360858692413974e+00  1.9437910050129885e+00  1.9211908820533277e+00  1.9548680738435547e+00  1.9149903745466372e+00  1.9108105799161001e+00  1.9153328640749983e+00  1.9030397891745847e+00  1.9311801756510159e+00  1.9512092466836291e+00  1.9499087013366290e+00  1.9313438032004329e+00  1.9240945153516857e+00  1.9625302536569227e+00  1.9668475324737122e+00  1.8996562280312135e+00  1.9758147616003092e+00  1.8937140991058188e+00  1.8988967388009237e+00  1.8948795279538286e+00  1.9777044018240477e+00  1.9349444263020918e+00  1.9355399538367264e+00  1.9480960172745496e+00  1.9290101447135994e+00  1.9088342022759412e+00  1.9265963873872864e+00  1.8726628094792597e+00  1.9973121160867817e+00  1.9089031013232731e+00  1.9232107878121054e+00  1.9723344944674610e+00  1.9729418755889390e+00  1.9152344894103688e+00  1.9155202233820281e+00  1.9193084043651703e+00  1.9432372298578702e+00  1.8884739745070034e+00  1.8809379276105858e+00  1.9814842181049754e+00  1.9206615320115037e+00  1.9457702136682196e+00  1.9587320705876170e+00  1.8686066630153637e+00  1.9281062706389420e+00  1.8836023269111168e+00  1.9050311070620440e+00  1.9424193122092193e+00  1.9679832524204977e+00  1.9357113654372777e+00  1.9264412689863670e+00  1.9309697187085566e+00  1.9403132032072630e+00  1.9488901651308670e+00  1.8917777170612693e+00  1.9735063484217323e+00  1.8902810054905337e+00  1.9173163999571392e+00  1.9267408660171930e+00  1.9000184526064379e+00  1.9448803338457146e+00  1.9494118867244199e+00  1.9451549120024563e+00  1.9058819876517434e+00  1.9222653124760183e+00  1.9380364948079594e+00  1.9081850709693868e+00  1.9408657259954250e+00  1.9003058386315876e+00  1.9419626113869668e+00  1.9574779973849099e+00  1.9183032730889973e+00  1.9303950539196837e+00  1.9592270759809685e+00  1.9548611774720579e+00  1.9232213380505010e+00  1.9207941414317724e+00  1.9038526264188040e+00  1.9334909655659192e+00  1.9555713643180967e+00  1.9343025561170719e+00  1.9468517566001919e+00  1.9084504098246415e+00  1.9879288515438736e+00  1.9600900516213871e+00  1.9609233427778099e+00  1.9749919949411188e+00  1.9170732817639395e+00  1.9707858285933642e+00  1.9723955977062777e+00  1.8954596889272537e+00  1.9265380236824952e+00  1.9208435133909556e+00  1.9156234196348474e+00  1.8978956542898655e+00  1.9132749777695761e+00  1.9372003004826528e+00  1.9288989210473966e+00  1.9180979181444862e+00  1.9121587727904381e+00  1.9084796676719256e+00  1.9120804203399484e+00  1.9792566534320206e+00  1.8972307078394459e+00  1.9253071502633223e+00  1.8893421435270206e+00  1.9146930987403643e+00  1.8498582084906310e+00  1.8849695488255924e+00  1.9517440943327713e+00  1.9126719184063212e+00  1.9326996557518854e+00  1.9268081387400970e+00  1.9327510445178546e+00  1.9764892765061364e+00  1.9377866099798533e+00  1.9109026749964833e+00  2.0220386088590536e+00  1.9770371974956480e+00  1.9525260679555438e+00  1.9638993598577823e+00  1.9711441733491333e+00  1.9168526163101818e+00  1.9647806821791425e+00  1.9115757099265589e+00  1.8923129164347308e+00  1.9754654132774967e+00  1.9370967228413387e+00  1.8712810503161756e+00  1.9891331771532521e+00  1.9833826927844020e+00  1.8901588152698554e+00  1.8918238237486780e+00  1.9474199230810567e+00  1.9128051530462300e+00  1.9247916841104693e+00  1.9004684742859963e+00  1.8802317798585721e+00  1.9669907957907664e+00  1.9296011775771802e+00  1.9279739288896636e+00  1.9752303417544821e+00  1.9285534267841560e+00  1.9193367772138787e+00  1.9665732867826828e+00  1.9363639462618525e+00  1.8997602515304852e+00  1.9049814876017943e+00  1.9191006333055285e+00  1.9735595792342582e+00  1.9506844640240877e+00  1.9423372595048527e+00  1.8881664930811357e+00  1.9656159514086555e+00  1.9010669575863506e+00  1.9265385420564030e+00  1.9404894374682822e+00  1.9538426866567793e+00  1.9102897314383858e+00  1.9494468155361577e+00  1.9459693784354235e+00  1.8905244287283172e+00  1.8904832708020540e+00  1.9018938858041667e+00  1.9547030223315174e+00  1.9527687401233180e+00  1.9286577624508294e+00  1.8863314071391268e+00  1.9484196292213911e+00  1.9246274877768621e+00  1.8483574953065076e+00  1.9394339825703386e+00  2.0046359803542235e+00  1.9608217233486984e+00  1.9546737456754142e+00  1.9157663663793911e+00  1.9350215810981384e+00  1.9388005578404304e+00  1.9164150858696916e+00  1.9384834822782087e+00  1.9445971068442982e+00  1.8997348247177035e+00  1.9416567293637754e+00  1.9268929389097436e+00  1.9058240563889466e+00  1.9022166486723255e+00  1.9058552010002243e+00  1.9379713574301665e+00  1.9182128176219637e+00  1.9582528259301359e+00  1.9805554705782098e+00  1.9239553316371274e+00  2.0069604895865396e+00  1.9678252972051387e+00  1.9101273741392195e+00  1.9376723627290902e+00  1.9220569277151993e+00  1.8915041244401252e+00  1.9529058663910901e+00  1.9778808749796284e+00  1.9515974131548661e+00  1.9689661731178327e+00  1.9028390683064760e+00  1.9645679607133752e+00  1.9195893692392554e+00  1.9228608532722089e+00  1.9203943453582903e+00  1.9424283176387263e+00  1.9425312814972540e+00  1.9426051208104638e+00  1.9457996086572826e+00  1.9472813612721804e+00  1.8637405645817064e+00  1.9354504246771194e+00  1.8975939201347225e+00  1.9762671903132394e+00  1.9471853796677023e+00  1.9494005580639489e+00  1.9294947294414400e+00  1.9610582486314998e+00  1.9558634286004979e+00  1.9541763317028740e+00  1.9314838487100037e+00  1.9690946927420625e+00  1.9302745474946343e+00  1.9296504068694964e+00  1.9050982216284613e+00  1.9169708943591022e+00  1.9329381324993637e+00  1.9315686604682991e+00  1.9030944190789065e+00  1.9018657409255157e+00  1.8741088510476107e+00  1.8944634766612618e+00  1.9316183350201341e+00  1.9467111951355556e+00  1.9142586375684765e+00  1.9619251600496996e+00  1.9566507518577110e+00  1.9332642714705592e+00  1.9089775854256443e+00  1.9261399825426373e+00  1.9227771474447204e+00  1.9241551565096906e+00  1.9244413871376529e+00  1.9439173311418925e+00  1.8961089657123287e+00  1.9189690240947119e+00  1.9577493249087503e+00  1.9341955781775169e+00  1.9679892514106752e+00  1.9605489213834404e+00  1.9322791471466876e+00  1.9137550226472497e+00  1.8966520156872304e+00  1.9509472240968631e+00  1.9330794297928613e+00  1.9082175716281458e+00  1.9188900091691719e+00  1.9299068526767473e+00  1.9776531122720025e+00  1.8850438453793912e+00  1.9240374956247348e+00  1.9280477325805012e+00  1.9276657884256458e+00  1.9731777044342975e+00  1.9844946528957803e+00  1.9769409195335068e+00  1.8927240158630321e+00  1.9376938285546683e+00  1.9074161584903500e+00  1.8936417870492916e+00  1.9152674124476099e+00  1.9273472044806494e+00  1.9554546548346319e+00  1.8895764243425781e+00  1.9724143982014481e+00  1.8974190608965420e+00  1.8896136675154758e+00  1.8904591023527455e+00  1.8995878567509907e+00  1.8943244949923237e+00  1.9393120709849248e+00  1.9535915259572529e+00  1.9915510283425433e+00  1.9426241117846867e+00  1.8439992474844147e+00  1.9167746701931290e+00  1.9216187188968705e+00  1.9208685850417138e+00  1.8738701950058005e+00  1.8878003370324938e+00  1.9328714463629502e+00  1.9232404682283650e+00  1.9217833206620842e+00  1.9100062461068690e+00  1.9104938523085997e+00  1.9070431565436519e+00  1.9809141271889767e+00  1.9069188193194142e+00  1.9134393414242070e+00  1.9269458074737367e+00  1.9611135856422115e+00  1.9115666385834369e+00  1.9202864073364034e+00  1.9380897636636167e+00  1.9072719429284031e+00  1.9193314771360355e+00  1.9143236567648820e+00  1.9134858831275099e+00  1.9169819196236901e+00  1.8851364902847414e+00  1.9721561238795051e+00  2.0075905966459757e+00  1.9641689778158267e+00  1.9515932967473235e+00  1.9654455550053713e+00  1.9443178441637541e+00  1.9264166920782591e+00  1.9785362421359010e+00  1.9168439572518807e+00  1.9063323955989553e+00  1.8993739488330745e+00  1.9096763121866220e+00  2.0280375686227221e+00  1.9795217322919272e+00  1.8900481306546590e+00  1.9533374808215263e+00  1.9588088921701940e+00  1.9257281004455284e+00  1.9740176001735337e+00  1.8923952125672812e+00  1.9258771467286706e+00  1.8791159177198307e+00  1.8747527275618536e+00  1.9257454199013426e+00  1.9393701516601871e+00  1.8861306772807169e+00  1.9174097648837432e+00  1.9150290238494816e+00  1.8915601057358513e+00  1.9231169601213374e+00  1.8812405280374067e+00  1.9631351333956610e+00  1.9538883973026151e+00  1.9198777673315599e+00  1.8845098258318635e+00  1.9007117255218404e+00  1.9748594782476776e+00  1.9719590013434170e+00  1.8852674958231022e+00  1.8864451007021450e+00  1.9206381953008997e+00  1.9398058288349078e+00  1.9690888590406681e+00  1.9657858270623163e+00  1.9430958937526621e+00  1.9630242075322575e+00  1.9224405851902771e+00  1.9142888251731087e+00  1.8979313331082244e+00  1.9331254295048674e+00  1.9287146800984356e+00  1.8951430747958262e+00  1.9487260232588959e+00  1.9067455882860900e+00  1.9376460440227881e+00  1.9122828236540446e+00  1.9292802723464182e+00  1.9311885344642654e+00  1.9480083146908240e+00  1.9306196820588573e+00  1.9512530929355330e+00  1.9725063898885149e+00  1.8964129433458594e+00  1.9767386828498443e+00  1.9315943944673848e+00  1.9349467208676960e+00  1.9270680797395581e+00  1.9413364057445850e+00  1.9329514485105883e+00  1.9268431127029084e+00  1.9499290520638723e+00  1.9345641025576468e+00  1.8883805390379789e+00  1.9345891772069386e+00  1.9435380708182808e+00  1.9342441266854045e+00  1.8942021325672558e+00  1.9326796344800901e+00  1.9256031802478373e+00  1.9720672183557011e+00  1.9364093526657808e+00  1.8974386689686946e+00  1.8998441561930191e+00  1.9370556685001219e+00  1.9114996674604274e+00  1.9662327253581169e+00  1.9453967487331207e+00  1.9088258767019439e+00  1.9288220030683314e+00  1.8967290866944606e+00  1.9448623791418109e+00  1.9755322953993621e+00  1.9837823648968020e+00  1.8959914772133981e+00  1.9694380851896609e+00  1.9392479293592744e+00  1.9180784613370223e+00  1.9456264729587180e+00  1.9233055937556236e+00  1.9404568483426856e+00  1.9394989969340344e+00  1.9223473897462859e+00  1.9494923031566094e+00  1.9367796051691006e+00  1.9043199980578425e+00  1.9496171902556516e+00  1.9485287083240170e+00  1.9633757091728352e+00  1.9593618438159397e+00  1.9481221418116303e+00  1.9175799031090146e+00  1.9161857002390756e+00  1.9169804022782333e+00  1.8888420077690216e+00  1.9392178987270110e+00  1.9205397233353336e+00  1.9529624946293578e+00  1.9460975065219190e+00  1.9276391243114681e+00  1.9086817795806166e+00  1.8452200760668365e+00  1.8831801842060840e+00  1.9678973169739613e+00  1.9060813287051663e+00  1.8895179131569992e+00  1.9522066574287806e+00  1.9012292743747465e+00  1.9137404705191345e+00  1.9045707101245650e+00  1.9198843748369052e+00  1.9605029025740082e+00  1.9277086759513871e+00  1.9275457604729378e+00  1.9253412775799574e+00  1.8736821353169009e+00  1.9660238684235753e+00  1.8906996004353229e+00  1.9568037449547893e+00  1.9775163826366713e+00  1.9405743159543021e+00  1.8900589539527344e+00  1.9462396583896604e+00  1.9430434378790182e+00  1.9236328014026169e+00  1.9378879482638249e+00  1.9029262411280987e+00  1.8923500808805811e+00  1.9560277107995123e+00  1.9535128752940165e+00  1.9652446183777534e+00  1.8894870846646101e+00  1.8915686975823631e+00  1.9406278670106514e+00  1.9433665612627000e+00  1.9065547262302645e+00  1.9745722783875845e+00  1.9751552021648802e+00  1.8776282150249570e+00  1.9613514224247712e+00  1.9457686597317356e+00  1.9622788710380390e+00  1.9414032010012143e+00  1.9443278509245612e+00  1.8236703343860570e+00  1.9294479375864499e+00  2.0039323274163174e+00  1.9561982851000943e+00  1.9570509914200418e+00  1.9580518197328640e+00  1.9801196100406639e+00  1.9408954446086590e+00  1.9413256823861036e+00  1.9423789082330927e+00  1.9133198289700466e+00  1.9563200886696366e+00  1.9193427818622113e+00  1.9125478507078844e+00  1.9040213726602493e+00  1.9254144782957878e+00  1.9768125415268831e+00  1.9379403217276452e+00  1.9116472680628847e+00  1.9759154668874155e+00  2.0068576297388079e+00  1.9168310122341272e+00  1.8946018429008118e+00  1.9365236264735255e+00  1.9513587149640532e+00  1.9513504546819009e+00  1.9245700886476846e+00  1.9161869189424157e+00  1.9135068733841150e+00  1.9822217800344686e+00  1.9938947231288817e+00  1.9217264303781476e+00  1.9394151737503169e+00  1.9670608963177065e+00  1.9652015033327315e+00  1.9183138597097347e+00  1.9505336996985507e+00  1.9613253253905314e+00  1.9552607066774761e+00  1.9603355788327201e+00  1.9186245599474399e+00  1.9035946934440611e+00  1.9054493784908262e+00  1.9021577535706995e+00  1.9200037126019547e+00  1.9189358109149588e+00  1.9377097363335414e+00  1.9331671430865083e+00  1.9137842490450170e+00  1.9801898252168095e+00  1.8970351840716593e+00  1.9294810312855992e+00  1.9151084293791039e+00  1.9370153650572031e+00  1.9018785902283311e+00  1.9483537839129079e+00  1.9346198950147375e+00  1.9353697074351655e+00  1.9327478960821916e+00  1.9137646376132649e+00  1.9710094876006561e+00  1.8977990123467363e+00  1.8801424026206872e+00  1.9392955369652922e+00  1.9369749878838720e+00  1.9735011613171283e+00  1.9095788512408522e+00  1.9685385579026138e+00  1.9029429447761392e+00  1.9307103236304037e+00  1.9214446865950299e+00  1.9140544177832184e+00  1.9550968353673750e+00  1.9064751049943827e+00  1.9027700163874450e+00  1.9365448944751296e+00  1.9065850325175071e+00  1.9459115892041918e+00  1.9480787576985132e+00  1.9483214858016555e+00  1.9620984054013348e+00  1.9121751392579776e+00  1.9228063859597262e+00  1.9190237149772778e+00  1.9213888353334296e+00  1.9707550379525898e+00  1.9340509547526024e+00  1.9853828197602430e+00  1.8562711351381274e+00  1.8586860310787474e+00  1.8647112540238013e+00  1.9181227146178323e+00  1.9766092530535406e+00  1.9618153708924644e+00  1.9594496279201146e+00  1.9182946911797563e+00  1.9720324779180420e+00  1.9701742654070316e+00  1.9739182925805285e+00  1.9117721790568252e+00  1.9222273129278959e+00  1.9696888286701764e+00  1.8982265037646082e+00  1.9627519097463491e+00  1.9105324835285076e+00  1.9750277953356385e+00  1.9155671791106517e+00  1.8951864224848187e+00  1.8964005208557309e+00  1.9235896036450457e+00  1.9153226132378303e+00  1.9151427991693550e+00  1.9705386051166263e+00  1.8961227024957137e+00  1.9360917868976137e+00  1.8921416985266528e+00  1.9277057007910856e+00  1.9076281767629661e+00  1.9880623153098282e+00  1.9381266851238845e+00  1.9288388164268624e+00  1.9088944797844991e+00  1.8882007939002554e+00  1.9761545259641127e+00  1.9117294842183199e+00  1.9168770331627221e+00  1.9317406014116369e+00  1.9152063423598427e+00  1.9102741218828245e+00  1.9590799843409472e+00  1.9114976574381324e+00  1.9105710710183994e+00  1.9078625128772169e+00  1.9594196236985526e+00  1.9615233629856175e+00  1.9323535324346830e+00  1.9212490638921758e+00  1.9121506599515021e+00  1.9889789811470358e+00  1.9955669628643080e+00  1.9843847050284786e+00  1.8897257542841577e+00  1.9255021832420847e+00  1.9732784982066938e+00  1.9243410372019205e+00  1.9261285069295435e+00  1.9268152558145171e+00  1.9111565362247220e+00  1.8960021454714850e+00  1.9071259557634082e+00  1.9285806194021395e+00  1.9114521895195895e+00  1.9700863317964679e+00  1.8888163316866982e+00  1.9286407110566812e+00  1.9300168132981395e+00  1.8638437303523838e+00  1.8884919846068771e+00  1.8826410253956756e+00  1.9505188734654075e+00  1.9570524543504133e+00  1.9339986638048583e+00  1.9316669933287360e+00  1.9316125858905238e+00  1.8981492304655256e+00  1.9387942540796805e+00  1.9080653110853336e+00  1.9129791663014444e+00  1.9648606900551524e+00  1.9334605347648339e+00  1.9314279273161228e+00  1.9316826501277355e+00  1.9287636118605123e+00  1.9196245614185949e+00  1.9538195639984337e+00  1.9072258343766679e+00  1.9175349415728127e+00  1.9227310530933388e+00  1.9201468220147917e+00  1.9659921340015534e+00  1.9634639644816863e+00  1.9763646357032367e+00  1.9125009774371580e+00  1.9175290664534403e+00  1.9378450315118607e+00  1.9477692033812273e+00  1.9022081310585930e+00  1.9364905854163028e+00  1.9241053598921094e+00  1.9241356912682435e+00  1.9252223065318412e+00  1.8826035134185819e+00  1.8864822560514602e+00  1.9444235380726043e+00  1.9475429103358968e+00  1.9423867770937921e+00  1.9736979551010461e+00  1.8959133498376604e+00  1.8987627052960383e+00  1.9106527119551735e+00  1.9801955788214014e+00  1.8937069903952859e