<?xml version="1.0"?>
<VTKFile type="UnstructuredGrid"  version="0.1"  >
<UnstructuredGrid>
<Piece  NumberOfPoints="1890" NumberOfCells="3574">
<Points>
<DataArray  type="Float64"  NumberOfComponents="3"  format="ascii">1 0 0  0.9977668786231532 0.06679263374512155 0  0.9910774881547801 0.1332869553737788 0  0.9799617050365869 0.1991859851038361 0  0.9644691750543766 0.264195401871286 0  0.9446690916079188 0.3280248578395691 0  0.9206498866764288 0.3903892751634948 0  0.8925188358598812 0.4510101192161018 0  0.8604015792601394 0.5096166425919174 0  0.8244415603417603 0.5659470943305952 0  0.784799385278661 0.6197498889602449 0  0.7416521056479576 0.6707847301392235 0  0.6951924276746423 0.7188236838779293 0  0.6456278515588024 0.7636521965473321 0  0.5931797447293553 0.8050700531275629 0  0.5380823531633727 0.842892271416797 0  0.4805817551866838 0.8769499282066715 0  0.420934762428335 0.9070909137343407 0  0.3594077728375128 0.9331806110416025 0  0.2962755808856342 0.9551024972069124 0  0.2318201502675284 0.9727586637650372 0  0.1663293545831299 0.9860702539900286 0  0.1000956916240984 0.994977815088504 0  0.03341497700767464 0.9994415637302546 0  -0.03341497700767452 0.9994415637302546 0  -0.1000956916240983 0.994977815088504 0  -0.16632935458313 0.9860702539900286 0  -0.2318201502675281 0.9727586637650372 0  -0.2962755808856338 0.9551024972069124 0  -0.3594077728375129 0.9331806110416025 0  -0.4209347624283349 0.9070909137343408 0  -0.4805817551866837 0.8769499282066716 0  -0.5380823531633726 0.8428922714167971 0  -0.5931797447293552 0.805070053127563 0  -0.6456278515588024 0.7636521965473321 0  -0.6951924276746423 0.7188236838779293 0  -0.7416521056479576 0.6707847301392235 0  -0.784799385278661 0.6197498889602449 0  -0.8244415603417601 0.5659470943305954 0  -0.8604015792601392 0.5096166425919177 0  -0.8925188358598811 0.4510101192161021 0  -0.9206498866764287 0.3903892751634951 0  -0.9446690916079189 0.3280248578395689 0  -0.9644691750543765 0.2641954018712862 0  -0.9799617050365867 0.1991859851038363 0  -0.99107748815478 0.133286955373779 0  -0.9977668786231532 0.0667926337451217 0  -1 -3.216245299353273e-16 0  -0.9977668786231532 -0.06679263374512145 0  -0.9910774881547801 -0.1332869553737783 0  -0.9799617050365869 -0.1991859851038361 0  -0.9644691750543766 -0.264195401871286 0  -0.9446690916079188 -0.3280248578395691 0  -0.9206498866764288 -0.3903892751634949 0  -0.8925188358598815 -0.4510101192161015 0  -0.8604015792601394 -0.5096166425919175 0  -0.8244415603417605 -0.5659470943305949 0  -0.7847993852786611 -0.6197498889602446 0  -0.7416521056479575 -0.6707847301392236 0  -0.6951924276746424 -0.7188236838779292 0  -0.6456278515588025 -0.7636521965473319 0  -0.593179744729355 -0.8050700531275631 0  -0.5380823531633728 -0.842892271416797 0  -0.4805817551866835 -0.8769499282066716 0  -0.4209347624283351 -0.9070909137343407 0  -0.3594077728375134 -0.9331806110416024 0  -0.296275580885634 -0.9551024972069124 0  -0.2318201502675288 -0.9727586637650371 0  -0.1663293545831301 -0.9860702539900286 0  -0.1000956916240988 -0.994977815088504 0  -0.03341497700767455 -0.9994415637302546 0  0.03341497700767418 -0.9994415637302546 0  0.1000956916240984 -0.994977815088504 0  0.1663293545831297 -0.9860702539900286 0  0.2318201502675284 -0.9727586637650372 0  0.2962755808856337 -0.9551024972069125 0  0.3594077728375122 -0.9331806110416029 0  0.4209347624283348 -0.9070909137343408 0  0.4805817551866832 -0.8769499282066718 0  0.5380823531633725 -0.8428922714167971 0  0.5931797447293548 -0.8050700531275633 0  0.6456278515588023 -0.7636521965473321 0  0.6951924276746418 -0.7188236838779297 0  0.7416521056479575 -0.6707847301392235 0  0.7847993852786612 -0.6197498889602446 0  0.8244415603417603 -0.5659470943305952 0  0.8604015792601392 -0.5096166425919179 0  0.8925188358598808 -0.4510101192161026 0  0.9206498866764287 -0.3903892751634952 0  0.9446690916079188 -0.328024857839569 0  0.9644691750543765 -0.2641954018712863 0  0.9799617050365869 -0.199185985103836 0  0.99107748815478 -0.1332869553737791 0  0.9977668786231532 -0.06679263374512227 0  0.5766044443118978 0.06427876096865393 0  0.6 0 0  0.5766044443118978 -0.06427876096865397 0  0.517364817766693 -0.09848077530122082 0  0.45 -0.08660254037844384 0  0.4060307379214091 -0.03420201433256687 0  0.4060307379214091 0.03420201433256689 0  0.45 0.08660254037844388 0  0.5173648177666931 0.0984807753012208 0  -0.2965686451888956 -3.216245299353273e-16 0  0.02995799338450739 0.4463820650390996 0  0.02995799338450775 -0.4463820650390995 0  -0.3955719483658615 0.4150379846043291 0  -0.4169105514339966 -0.4032046590493156 0  -0.6262911543602625 0.1406750128378851 0  0.4099697941225568 0.4649562806856727 0  0.4099697941225571 -0.4649562806856725 0  0.05127126517818126 0.08817401780249684 0  -0.1831682142260297 -0.6686721086721615 0  -0.1831682142260294 0.6686721086721619 0  -0.6520464330424147 -0.1814832365373373 0  0.2091634468672813 0.6766366337832459 0  0.1883365569596445 -0.6875396105945327 0  0.2159040325791659 -0.2383848214817743 0  -0.1744543149380852 0.2484563274625736 0  -0.06716122455575962 -0.1748068953293204 0  0.2513036159616241 0.2568747514607447 0  0.6477088057990819 -0.3356515765545967 0  0.6477088057990816 0.3356515765545969 0  -0.6429348001755962 0.3888615828205575 0  -0.4176911395802332 -0.639529979133491 0  -0.6487907438517166 -0.4141725603623674 0  -0.4382859878713386 0.638471665172117 0  -0.1883060146004528 -0.3712832336183189 0  -0.4093410988944064 0.1924263534676403 0  0.7784262897673441 0.1313041761919452 0  0.7692266286696862 -0.1588101168391893 0  -0.3273037620396328 -0.2103878546156154 0  -0.1798454764806241 0.458542771899162 0  0.4017553023960708 -0.6784121172515977 0  -0.7833260349743965 -0.008879310202590557 0  -0.4794205971237819 -0.08072648637784163 0  0.4174224539707952 0.6731117436251652 0  0.01086072875173043 0.7779172259216657 0  0.5993482410529842 0.529941331081667 0  0.5800727149699484 -0.5610028828936883 0  -0.002913066865704084 -0.7863475463243047 0  0.4644692980420977 0.281953550413786 0  0.4644692980420981 -0.281953550413786 0  0.2204900511885566 0.4449044634307799 0  0.2180189937406393 -0.4954600835645215 0  0.2060327886352148 -0.03858259979572255 0  -0.7808481637664745 0.2422213783127347 0  0.06990549121986947 0.2690208389553115 0  -0.1124194025531066 0.00373323440863213 0  -0.2838372182411008 -0.5216724848805774 0  0.03130371177689495 -0.6180840640285581 0  -0.7762218745645899 -0.2989562490519654 0  0.05214597457400483 0.613977754767665 0  -0.4956543915012957 -0.251170934148539 0  -0.5275381827985767 -0.5210032025475994 0  -0.5301696116286927 0.5051064981533095 0  -0.16809888692682 -0.8270183856644552 0  -0.3240121076586466 0.7657967722683376 0  -0.1438288839385778 0.8257307941019953 0  -0.2998557134907758 0.5617360107302967 0  0.1684367173033988 0.8286804545679113 0  -0.6250110225296729 -0.01789111552180164 0  -0.3137113036339798 -0.7609856814941814 0  -0.1170075000122383 -0.518790272865666 0  0.05108989091758273 -0.06990257622780319 0  -0.5427150590508653 0.270931066435428 0  0.1429967624415053 -0.8342737229435346 0  0.2997239097253987 -0.7923562376371267 0  0.2676893696803808 0.1031671400466477 0  0.3261287713905652 -0.3403712992466087 0  0.7950089908879098 0.2858943947941835 0  0.3151824699376609 0.7865115564528017 0  0.3115634426834656 0.5726907027982669 0  0.704039443019545 -0.4753841151972395 0  0.7470219429290336 -0.01290298646666185 0  -0.8321235529347469 -0.1551998530807213 0  0.05709269783870959 -0.2835250962999872 0  -0.2021447182543711 -0.1140175740005167 0  -0.05854661192244001 0.3332686099592011 0  -0.4944752806394075 0.06870205217856792 0  0.6465785626300955 0.1909460270059954 0  0.6150172073263744 -0.1992156468339642 0  -0.08321382237958147 0.5651617303365446 0  -0.6720985235143602 0.5299695767353035 0  0.3081627102340266 -0.1336818188805801 0  0.7954182263431147 -0.306979485853048 0  -0.0801862748968569 0.1421281857867356 0  -0.2704290205461716 0.3511058548763765 0  -0.2733876063765904 0.1428439818287992 0  -0.6630142665634642 -0.5525422555121322 0  0.7250705628492369 0.4580712316052048 0  0.5291222693526491 0.4008241947929737 0  0.543461903937986 -0.42718897847992 0  -0.5796080761878384 0.6375025331582558 0  -0.5686737890628571 -0.6510435601866913 0  0.1471374478051752 -0.382217095965624 0  0.367570301927055 0.1909193223550535 0  0.8716954478736112 0.02914395839180125 0  0.3487459623057126 0.3471068582357988 0  0.1543099947611301 0.1689404724154097 0  -0.07297109638128209 -0.3068109338541753 0  0.2917188534562402 -0.6051822784871949 0  -0.2024804285799746 -0.2430406644266693 0  -0.7781944430042567 0.3778986247265116 0  -0.8494742869240901 0.1173360134018405 0  -0.7720870174071235 -0.4231153023082534 0  -0.449110317890587 -0.7582468751604555 0  0.5545923664877855 0.6602415200552888 0  0.5344562863167422 -0.6858381270857777 0  0.4766344790775262 0.566780609122759 0  -0.445772660902635 0.7601337067632379 0  -0.6616262409933745 0.2552874992358464 0  0.1653545872376546 0.5583524484327292 0  -0.4028773004059317 -0.5214149604035093 0  -0.2990776467406227 -0.6432205051811133 0  0.1120905589734103 -0.1750840530986415 0  0.06398953478431954 0.8829484618446889 0  -0.5251433924072202 0.3874134656159851 0  -0.6099143365137073 -0.2972611803339155 0  -0.04678747567896177 0.6762313351705379 0  -0.533024901227188 -0.4050045909030676 0  0.1246725721343765 0.3745355098341986 0  -0.3000083100373507 -0.4058635916290634 0  -0.06655528087218812 -0.8836517798731542 0  -0.4088769106504622 0.5282941447433156 0  -0.7345489526308654 0.09712579222418664 0  0.1081465349890011 -0.5316255335782825 0  0.8804353520695445 -0.1485109638682795 0  -0.3713419913383989 0.08543731094255294 0  -0.43252237558797 0.3055918258709063 0  0.1125429094389743 0.7322321616258178 0  -0.8927041854393205 -0.02984635711944513 0  -0.06589562952638969 -0.6859291199262957 0  -0.7331201394770802 -0.1069200385835311 0  -0.08867729710384351 -0.414111852980487 0  -0.0447872543388
[...]
<PointData  Scalars="f_28"> 
<DataArray  type="Float64"  Name="f_28"  format="ascii">-6.0869559259722750e-01  -6.1803376152275291e-01  -6.2664896547057414e-01  -6.3447943063088008e-01  -6.4098659936524416e-01  -6.4627060017397797e-01  -6.5007921925988510e-01  -6.5275474313310633e-01  -6.5431144493680760e-01  -6.5506310527279754e-01  -6.5503099761939643e-01  -6.5452688411097126e-01  -6.5365434480882567e-01  -6.5246768414217293e-01  -6.5106148317302492e-01  -6.4957080976594184e-01  -6.4796628472229800e-01  -6.4626466617447365e-01  -6.4464410732879907e-01  -6.4298398736691986e-01  -6.4131452515732978e-01  -6.3974453775862150e-01  -6.3816260275620140e-01  -6.3663424500371735e-01  -6.3515067246567880e-01  -6.3366151898327794e-01  -6.3232737904111858e-01  -6.3092925738902317e-01  -6.2961428743123216e-01  -6.2828351673771354e-01  -6.2703424231635374e-01  -6.2580246320434041e-01  -6.2461044528314957e-01  -6.2343816974547139e-01  -6.2229204460517384e-01  -6.2118491572494894e-01  -6.2003766833546314e-01  -6.1895420658920752e-01  -6.1784964338466020e-01  -6.1681347763288752e-01  -6.1577461313929260e-01  -6.1472133843302967e-01  -6.1368917746100560e-01  -6.1264867775132403e-01  -6.1160872993156346e-01  -6.1057588209027980e-01  -6.0958538425305719e-01  -6.0855335532832211e-01  -6.0750258941336577e-01  -6.0649589177207941e-01  -6.0545945752529517e-01  -6.0440484990069376e-01  -6.0331734094918599e-01  -6.0228293446091985e-01  -6.0123964736073243e-01  -6.0010903366660839e-01  -5.9900427275684498e-01  -5.9791231588974303e-01  -5.9676279055708770e-01  -5.9561343204462402e-01  -5.9443750515157501e-01  -5.9323059294525371e-01  -5.9201515163269625e-01  -5.9077170355543129e-01  -5.8949048344041854e-01  -5.8818578673560440e-01  -5.8685434331017106e-01  -5.8550881179421099e-01  -5.8411123387999264e-01  -5.8269653136257116e-01  -5.8123919348581832e-01  -5.7976982676066979e-01  -5.7824430918425274e-01  -5.7671676292299978e-01  -5.7510664566626768e-01  -5.7356380705801246e-01  -5.7198452885774398e-01  -5.7040998901772277e-01  -5.6884582468461231e-01  -5.6735121329293037e-01  -5.6597147905572431e-01  -5.6465894892962754e-01  -5.6357198373584505e-01  -5.6275811910781215e-01  -5.6232690385582895e-01  -5.6242176809459887e-01  -5.6309201533172026e-01  -5.6475716186140734e-01  -5.6735474121979190e-01  -5.7114443350971011e-01  -5.7641163436161857e-01  -5.8275706606804500e-01  -5.9056429459088933e-01  -5.9934236780676831e-01  -7.2873996152986853e-01  -6.2536413693466419e-01  -5.2524228699128117e-01  -4.4558069364339770e-01  -4.6209061717958283e-01  -5.6489219694350767e-01  -7.0150217136745330e-01  -7.7259502820865922e-01  -7.8363605858161545e-01  -6.3492811615311573e-01  -6.4933646742539508e-01  -5.9727376922573094e-01  -6.3040743465053417e-01  -6.0623824632175782e-01  -6.1840451188261547e-01  -6.6145959621868078e-01  -5.6625026539516599e-01  -6.4606696075567960e-01  -5.9065952217877260e-01  -6.3378342893022666e-01  -6.0948765870604127e-01  -6.4579024029965382e-01  -5.7759870388211432e-01  -5.9093098215447382e-01  -6.4526238185838491e-01  -6.2578736038500449e-01  -6.6481883157124400e-01  -5.5668977381296980e-01  -6.6623521327371482e-01  -6.1931064732782215e-01  -5.9443186162354134e-01  -6.0166153244674747e-01  -6.2567160482597461e-01  -6.1102765866167941e-01  -6.3188882148597447e-01  -6.4096906764657935e-01  -5.7693348124538724e-01  -6.2178953272041049e-01  -6.4029138455467571e-01  -5.6899938986940501e-01  -6.1005786194489842e-01  -6.2145323492503524e-01  -6.5073462856699948e-01  -6.3751882259287151e-01  -6.5763671999022899e-01  -5.6263097581649701e-01  -5.8217880901840180e-01  -6.8343127988593877e-01  -5.4691283947027924e-01  -6.5646529716080060e-01  -5.8100022872049051e-01  -6.2257810595709306e-01  -6.1415940387353485e-01  -6.5422393638166132e-01  -6.4050085128490164e-01  -5.9995403106468148e-01  -5.8689894926210140e-01  -6.0366390747429166e-01  -6.4346257025964504e-01  -6.1259671400304017e-01  -5.9887263684862768e-01  -6.2325713158959584e-01  -5.8548558034188891e-01  -6.2834082184102569e-01  -6.3272088105221169e-01  -6.3183555223344046e-01  -6.4098399342685519e-01  -6.1550831809272599e-01  -5.8962471003264572e-01  -5.9810783257436995e-01  -6.3018867529672040e-01  -6.2365234764837296e-01  -5.7722195867634485e-01  -5.7260382695345335e-01  -6.5746803961034250e-01  -5.7050925268835351e-01  -6.5159854363616876e-01  -6.4544921246949194e-01  -6.5278548494144306e-01  -5.6122450654017009e-01  -6.1085376333239982e-01  -6.0633808666664557e-01  -6.0793431780891272e-01  -6.3178167237157490e-01  -6.4909133698846266e-01  -6.2498877637862860e-01  -6.7720893312812602e-01  -5.4395039183898863e-01  -6.4057497938138819e-01  -6.1941866501324505e-01  -5.7754830978112881e-01  -5.6652166395079151e-01  -6.4747010675926975e-01  -6.3870144480134705e-01  -6.3994711389807135e-01  -5.9792179359857855e-01  -6.5691827462177477e-01  -6.6731906464451385e-01  -5.5911854942675243e-01  -6.2208394462053462e-01  -5.9517677541871883e-01  -5.9204838850425900e-01  -6.8502260798088144e-01  -6.1473922620191457e-01  -6.6858448349231092e-01  -6.5448785801696219e-01  -6.1405007345849261e-01  -5.7402953777569388e-01  -6.2182051186081089e-01  -6.1593094524489700e-01  -6.1114692196728915e-01  -6.0096533814070552e-01  -5.9171369847329625e-01  -6.5314105609259177e-01  -5.6542256485035358e-01  -6.5597585491767407e-01  -6.2550518498398944e-01  -6.1789131481049364e-01  -6.4932328400688932e-01  -5.9962387256783078e-01  -5.9340480126321948e-01  -6.1259337165845507e-01  -6.3769101856066346e-01  -6.2413246144140022e-01  -6.0657082295227238e-01  -6.3816052952176627e-01  -6.0372107832780464e-01  -6.5522240542324806e-01  -6.0798815830156594e-01  -5.8241654176747648e-01  -6.2783957291513770e-01  -6.1331486335822261e-01  -5.8726234695269253e-01  -5.8579445275699560e-01  -6.3326136286274703e-01  -6.2990420863514229e-01  -6.4140229090238365e-01  -6.0824263540824419e-01  -5.8713527177887859e-01  -6.0913434425750956e-01  -6.0541582407515826e-01  -6.3500455807723832e-01  -5.5751367221710413e-01  -5.7959396737182922e-01  -5.8019926948249079e-01  -5.6969954767850850e-01  -6.4299501390043501e-01  -5.6816789649460975e-01  -5.6877506701234670e-01  -6.4894606797817977e-01  -6.2944780109200760e-01  -6.4107266533528484e-01  -6.3471775791729690e-01  -6.5301477525633489e-01  -6.3039723521380087e-01  -6.1368567869029300e-01  -6.2917895336967355e-01  -6.3787537332708955e-01  -6.3646345425854944e-01  -6.4480968261118599e-01  -6.4418807555794089e-01  -5.6135101042271618e-01  -6.4840068291505426e-01  -6.2432399988852583e-01  -6.5574769384017684e-01  -6.3022853626795505e-01  -7.0175857571926747e-01  -6.6153628495622996e-01  -6.0342904662729102e-01  -6.3036611049378632e-01  -6.1999455720711527e-01  -6.2871696497662388e-01  -6.1505157198091387e-01  -5.6218845823905683e-01  -6.1597302326380021e-01  -6.5083825414711571e-01  -5.1736479366927846e-01  -5.6347159172209271e-01  -5.8767302131608889e-01  -5.7971572022089313e-01  -5.7396708605820235e-01  -6.4464020434691616e-01  -5.7453104878784955e-01  -6.4913263010185818e-01  -6.5264725069639640e-01  -5.6342235409694108e-01  -6.0434166363208475e-01  -6.7821384209713409e-01  -5.5180787416283283e-01  -5.5896293899099592e-01  -6.6061620077625172e-01  -6.6206454705404727e-01  -5.9497454929084304e-01  -6.3107698561668790e-01  -6.1747111665234011e-01  -6.5196390130101467e-01  -6.6987075499631421e-01  -5.7349231898295594e-01  -6.1235799524017243e-01  -6.1408633378855848e-01  -5.6350148545239709e-01  -6.3387465233626306e-01  -6.4410873740704189e-01  -5.8178042752555337e-01  -6.0630392495747576e-01  -6.5810028825598854e-01  -6.5212576550299384e-01  -6.2353065961587217e-01  -5.6614962335521113e-01  -5.8965770268823670e-01  -5.9909112930628416e-01  -6.5767862256181242e-01  -5.7446356856378611e-01  -6.4282467212687988e-01  -6.3651461827392641e-01  -6.1878793259110842e-01  -5.9161916644461165e-01  -6.3450183160225782e-01  -5.9535581017490802e-01  -6.0331333483856586e-01  -6.5437387115693735e-01  -6.5626682088009380e-01  -6.4286263096593388e-01  -5.8674694657061399e-01  -5.8845312424438723e-01  -6.1523960609668482e-01  -6.6106527546245764e-01  -6.0572932686727265e-01  -6.3744168050257943e-01  -7.0360640035384536e-01  -6.0265119054734850e-01  -5.3596691759315818e-01  -5.8202767575057091e-01  -5.9272284100703543e-01  -6.2703796893247432e-01  -6.1224684436642829e-01  -6.0872921166517968e-01  -6.2736767707579744e-01  -6.0280059409018372e-01  -5.9620827661793419e-01  -6.4470809624489689e-01  -5.9970457337607064e-01  -6.1619855224936715e-01  -6.4494456823147406e-01  -6.4509396062211499e-01  -6.4014196867441886e-01  -6.2095561888075379e-01  -6.3464321302864601e-01  -5.8387622753072166e-01  -5.5910704806445077e-01  -6.3763626580271915e-01  -5.3635775938551677e-01  -5.7124337698729566e-01  -6.3303808409406948e-01  -6.0542454241836741e-01  -6.2035817453138620e-01  -6.5584761857154850e-01  -6.0203326127722168e-01  -5.6152816318784793e-01  -5.9353122589433382e-01  -5.7472319597964050e-01  -6.4756691815097500e-01  -5.7528229166129641e-01  -6.2471848495935789e-01  -6.2147448590272125e-01  -6.2615231638950852e-01  -5.9853242605256529e-01  -5.9958746692879472e-01  -6.0206462345299216e-01  -5.9601594321661178e-01  -5.9368214967882027e-01  -6.9204895942840161e-01  -6.0604450114420017e-01  -6.4657426359559866e-01  -5.6241745405601562e-01  -5.9636623344624518e-01  -5.9207837551949249e-01  -6.2571711187082246e-01  -5.9045367816786942e-01  -5.8404895461923223e-01  -5.8588175007287580e-01  -6.1300966979691851e-01  -5.7022961706867659e-01  -6.1919865220402159e-01  -6.1673229869048463e-01  -6.3908581863877045e-01  -6.2834045780784120e-01  -6.2875436509234528e-01  -6.2673063721932032e-01  -6.4058078017560394e-01  -6.4297853843785868e-01  -6.7849299214194347e-01  -6.5530444751258554e-01  -6.1014194700149815e-01  -5.9390655151667293e-01  -6.2868346131483255e-01  -5.7752900457997691e-01  -5.8389453816057557e-01  -6.1217919283287037e-01  -6.3509292726431221e-01  -6.2065057124374112e-01  -6.2785472287648292e-01  -6.2151026374903662e-01  -6.1837724202075428e-01  -6.0303529451755333e-01  -6.6123679501022359e-01  -6.3886014117632095e-01  -5.9145852523226305e-01  -6.0815336072876147e-01  -5.7139557536808705e-01  -5.7964152412655334e-01  -6.0980750347462553e-01  -6.3599289599087871e-01  -6.4795709506755494e-01  -5.9890783702162564e-01  -6.2710902104276789e-01  -6.5155566503406570e-01  -6.4415607865910707e-01  -6.1288405507227084e-01  -5.6139896732881711e-01  -6.6189193243153488e-01  -6.2943978946993284e-01  -6.2440110845811925e-01  -6.2100549084304235e-01  -5.7552216765888020e-01  -5.5951353514780500e-01  -5.6729385550523515e-01  -6.5188555195718589e-01  -6.2053339666121254e-01  -6.3591523519111715e-01  -6.5112787095328017e-01  -6.3123209417445225e-01  -6.2427816916763623e-01  -5.8847483554181823e-01  -6.5931152902642987e-01  -5.6662352323082577e-01  -6.5102742369547895e-01  -6.5542905829173115e-01  -6.5458176056529538e-01  -6.4539460913918467e-01  -6.5196560217318322e-01  -6.1152747194854351e-01  -5.9859553496375950e-01  -5.4920898742220270e-01  -6.1513924465028003e-01  -7.1023027302096364e-01  -6.4198523466143531e-01  -6.3828759442575400e-01  -6.3579490755725876e-01  -6.7507568210960500e-01  -6.5778988302895469e-01  -6.1689033832206497e-01  -6.1906623151864393e-01  -6.2132207750221857e-01  -6.3709329793027381e-01  -6.4031914654905908e-01  -6.4139668897623980e-01  -5.6107297398847378e-01  -6.4878871053676013e-01  -6.3309344326936590e-01  -6.1511981469268029e-01  -5.7875824300727019e-01  -6.4716418204279957e-01  -6.2220237934929679e-01  -6.0817875383170827e-01  -6.5322830296542300e-01  -6.2373722836105616e-01  -6.4255654462735667e-01  -6.4029603795253842e-01  -6.3454364714573719e-01  -6.6176386768898454e-01  -5.6663401109323597e-01  -5.3591194849856127e-01  -5.8814377036068510e-01  -6.0275113580012418e-01  -5.8608537425143314e-01  -5.9712044928232910e-01  -6.3384032709075078e-01  -5.6133934522571116e-01  -6.2731217816544305e-01  -6.3766116855538357e-01  -6.4460494625451770e-01  -6.4593207016111898e-01  -5.1116753376717539e-01  -5.6196984450670195e-01  -6.5520452163586484e-01  -5.8709385022247218e-01  -5.8085913228177544e-01  -6.1727070967018138e-01  -5.6468374302703284e-01  -6.5303253370494341e-01  -6.1628370047219927e-01  -6.6899686915513046e-01  -6.7497086854626043e-01  -6.1836807444400621e-01  -6.1657005050504587e-01  -6.6001555884068996e-01  -6.3089650529824093e-01  -6.4781770302646569e-01  -6.5735393846242829e-01  -6.3981212882232308e-01  -6.7321666650634371e-01  -5.8504371318557069e-01  -5.9958805641407553e-01  -6.3355782972886132e-01  -6.7131016243041886e-01  -6.4356873850633267e-01  -5.6433718305988623e-01  -5.6720870887552066e-01  -6.6522127523535179e-01  -6.6753898937655753e-01  -6.2769923544501660e-01  -6.0412350230394729e-01  -5.7150164745574950e-01  -5.7595146717991208e-01  -6.1138543218066554e-01  -5.7756719746107865e-01  -6.2038012303926948e-01  -6.4721052957122616e-01  -6.4882120849689495e-01  -6.0889117805451043e-01  -6.1550915266968109e-01  -6.6075178739092066e-01  -5.9823777406712542e-01  -6.5202880832769627e-01  -6.2256407208612463e-01  -6.4864812799454163e-01  -6.1926663156472717e-01  -6.2450820981025357e-01  -5.9249933811600664e-01  -6.1123980616049467e-01  -5.9096968300130437e-01  -5.7071286400555199e-01  -6.5785562247356533e-01  -5.6193258297845694e-01  -6.1122636245850348e-01  -6.2124770793417650e-01  -6.3041781981343215e-01  -5.9974287104925017e-01  -6.1083336037934310e-01  -6.3296398084956640e-01  -5.9078767969079915e-01  -6.0716156179272784e-01  -6.5785398267013495e-01  -6.1812427825454463e-01  -5.9731224415568052e-01  -6.0731481326686276e-01  -6.5024710651698792e-01  -6.0899524768336233e-01  -6.2874975612915451e-01  -5.6811183932400000e-01  -6.0497722951547417e-01  -6.5296226775069033e-01  -6.4774271812467665e-01  -6.0478092179780107e-01  -6.3153277584234790e-01  -5.7291171581481115e-01  -6.0605488910063554e-01  -6.3438649941847969e-01  -6.1309899283886204e-01  -6.6037741401493166e-01  -5.9822502817205214e-01  -5.6307299153632306e-01  -5.5663841324177343e-01  -6.4865585080479182e-01  -5.6950881150910526e-01  -6.0227544272811329e-01  -6.2453552146329239e-01  -5.9505315283398963e-01  -6.1993344365894754e-01  -6.0062419736736550e-01  -6.0170664365832116e-01  -6.2587744780690158e-01  -6.0267695226222007e-01  -6.0778394160643345e-01  -6.3936613895408956e-01  -5.9075612484281470e-01  -5.9258162342411902e-01  -5.7595214618405832e-01  -5.8535741171912459e-01  -5.9631514908775318e-01  -6.2567624603814564e-01  -6.2686611315113372e-01  -6.2569355794854087e-01  -6.5859085458234079e-01  -6.0389938383161312e-01  -6.2283180514357583e-01  -6.0224693530998608e-01  -6.1129201268285238e-01  -6.1478850131721041e-01  -6.3633498895709195e-01  -7.0870195344527487e-01  -6.6550977959104618e-01  -5.8136720692173049e-01  -6.3733115874639734e-01  -6.5579424529831465e-01  -5.9543616336960425e-01  -6.5619075487292844e-01  -6.2956388055951951e-01  -6.3895396838719321e-01  -6.2553008823884992e-01  -5.7901727343078457e-01  -6.1576642789360536e-01  -6.1771670914119914e-01  -6.2051669943438159e-01  -6.7820355074998639e-01  -5.7794025986023079e-01  -6.5478870016070601e-01  -5.8455502501603374e-01  -5.6152196702655610e-01  -6.0110289700233888e-01  -6.5485355469172468e-01  -5.9678684606718724e-01  -6.0275233773995118e-01  -6.2806172462690768e-01  -6.0455487165531940e-01  -6.5233933038711533e-01  -6.5383107408101737e-01  -5.8781613263970600e-01  -5.8991402405125593e-01  -5.8843559975095394e-01  -6.5565910917366454e-01  -6.5315336108457678e-01  -6.1188755441027465e-01  -6.0715805412712598e-01  -6.3730183800692375e-01  -5.6594072209821311e-01  -5.6356669567620521e-01  -6.7386365682303528e-01  -5.8606983646828081e-01  -5.9941613872291322e-01  -5.8321373361050477e-01  -6.0730923095234424e-01  -6.0393814621908892e-01  -7.2967111997526957e-01  -6.1564624545781776e-01  -5.3873911044066025e-01  -5.8390381844212891e-01  -5.8273583656509909e-01  -5.8210954590407460e-01  -5.5941554162265161e-01  -6.0506496236786267e-01  -6.0178232274362187e-01  -6.0117914124942673e-01  -6.3139476215452939e-01  -5.9210085170163418e-01  -6.3117661999068875e-01  -6.3093958478208645e-01  -6.4239350546261209e-01  -6.1702772338799983e-01  -5.7159504559097640e-01  -6.1738717907690110e-01  -6.5012074458028513e-01  -5.6381636859936135e-01  -5.3940179990132053e-01  -6.2994718388274384e-01  -6.6266853610186482e-01  -6.1032229344443090e-01  -5.9613711798511371e-01  -5.8886403206677429e-01  -6.3286539426849120e-01  -6.4076714652312228e-01  -6.2938587160863046e-01  -5.6353268808805579e-01  -5.4947228426762629e-01  -6.2368979164715466e-01  -6.1906602605786276e-01  -5.7933321735239207e-01  -5.7522511849479663e-01  -6.2653417601549555e-01  -5.9111190525419910e-01  -5.7836267900864979e-01  -5.8504198557337239e-01  -5.8042748325402793e-01  -6.3905171755441792e-01  -6.4088062272695578e-01  -6.3941482515529180e-01  -6.4354379379744242e-01  -6.3534330706925524e-01  -6.2841429663279247e-01  -6.0358591222241653e-01  -6.0894421802414833e-01  -6.3418119446304366e-01  -5.5982457418752829e-01  -6.6043855496142212e-01  -6.1283035352550486e-01  -6.2767364156666849e-01  -6.1567189482428442e-01  -6.4186519304533229e-01  -5.9249735953552296e-01  -6.0969712187691660e-01  -6.0719025920229752e-01  -6.2635864291608401e-01  -6.3790450669568810e-01  -5.7130188484955968e-01  -6.4703630772060661e-01  -6.6807554439853944e-01  -6.0995889132753933e-01  -6.1245146818145391e-01  -5.6769620694602696e-01  -6.3394119893720979e-01  -5.7134223929773076e-01  -6.4942438618594556e-01  -6.2999739339142280e-01  -6.3675671651191978e-01  -6.2979445239832621e-01  -5.8482276406353850e-01  -6.4625420413840640e-01  -6.4592223467114585e-01  -6.2352552730120636e-01  -6.4045858826121227e-01  -6.0834234181131641e-01  -6.0209779312120870e-01  -5.9403515941476803e-01  -5.7948316720845261e-01  -6.3121967724911610e-01  -6.3813477994065670e-01  -6.4203110222377302e-01  -6.4150595845617320e-01  -5.6809341359646415e-01  -6.1621593488339677e-01  -5.5519225589783883e-01  -6.9522919858243781e-01  -6.9237071640652970e-01  -6.8560445382043245e-01  -6.4334608080390288e-01  -5.6227860184421052e-01  -5.7848121877192948e-01  -5.8162178341608295e-01  -6.2455494878328510e-01  -5.6818736873828501e-01  -5.7111804680581035e-01  -5.6800332633492834e-01  -6.3288646310921692e-01  -6.2144368724001242e-01  -5.7317258747859368e-01  -6.5497068789712543e-01  -5.8005249283545857e-01  -6.5066728854872324e-01  -5.6415317202948501e-01  -6.3005208625730047e-01  -6.4950794717485638e-01  -6.4782892567722516e-01  -6.2129356478335951e-01  -6.3344976275063791e-01  -6.3729053323011764e-01  -5.6870815705563427e-01  -6.4906127696118998e-01  -6.0545327728831844e-01  -6.6016993698915682e-01  -6.1427812052562603e-01  -6.4342464160209001e-01  -5.5806503641101812e-01  -6.1777535046168996e-01  -6.3073956332168524e-01  -6.3569351552387132e-01  -6.6759924458525000e-01  -5.6242553058199696e-01  -6.4261847125512783e-01  -6.3796945819878159e-01  -6.2021197253567417e-01  -6.2872854590535721e-01  -6.4251085565195054e-01  -5.8377929394328898e-01  -6.3581790235600710e-01  -6.3843929128842070e-01  -6.3598459181797506e-01  -5.8061622771860766e-01  -5.8290125573217466e-01  -6.1278105721138032e-01  -6.2115159254712382e-01  -6.3822890477101812e-01  -5.5288039138641165e-01  -5.4564841656762231e-01  -5.5694898377099245e-01  -6.5524745899998083e-01  -6.3727192211398087e-01  -5.7250340949453438e-01  -6.2475327911453848e-01  -6.2423922651808694e-01  -6.2126600659433062e-01  -6.3288152518899277e-01  -6.5052847326197516e-01  -6.3637595569567607e-01  -6.2506970303865761e-01  -6.3173542969930474e-01  -5.6901702300024359e-01  -6.5640525527898719e-01  -6.2183166227267439e-01  -6.1182170932685342e-01  -6.8839887489210316e-01  -6.6412948479035439e-01  -6.6472902470782280e-01  -6.0375449557122107e-01  -5.8884953836101284e-01  -6.1201833691312801e-01  -6.1595666775316016e-01  -6.1814928801073299e-01  -6.5778837582232519e-01  -6.2071204970815230e-01  -6.5245092485998291e-01  -6.4929459232089815e-01  -5.743593326655